# vtk DataFile Version 3.0
Results from optimization
ASCII
DATASET UNSTRUCTURED_GRID

POINTS 3131 float
0.0 0.0 0.0 0.0 30.0 0.0 
100.0 0.0 0.0 100.0 30.0 0.0 
0.0 1.0 0.0 0.0 2.0 0.0 
0.0 3.0 0.0 0.0 4.0 0.0 
0.0 5.0 0.0 0.0 6.0 0.0 
0.0 7.0 0.0 0.0 8.0 0.0 
0.0 9.0 0.0 0.0 10.0 0.0 
0.0 11.0 0.0 0.0 12.0 0.0 
0.0 13.0 0.0 0.0 14.0 0.0 
0.0 15.0 0.0 0.0 16.0 0.0 
0.0 17.0 0.0 0.0 18.0 0.0 
0.0 19.0 0.0 0.0 20.0 0.0 
0.0 21.0 0.0 0.0 22.0 0.0 
0.0 23.0 0.0 0.0 24.0 0.0 
0.0 25.0 0.0 0.0 26.0 0.0 
0.0 27.0 0.0 0.0 28.0 0.0 
0.0 29.0 0.0 1.0 0.0 0.0 
2.0 0.0 0.0 3.0 0.0 0.0 
4.0 0.0 0.0 5.0 0.0 0.0 
6.0 0.0 0.0 7.0 0.0 0.0 
8.0 0.0 0.0 9.0 0.0 0.0 
10.0 0.0 0.0 11.0 0.0 0.0 
12.0 0.0 0.0 13.0 0.0 0.0 
14.0 0.0 0.0 15.0 0.0 0.0 
16.0 0.0 0.0 17.0 0.0 0.0 
18.0 0.0 0.0 19.0 0.0 0.0 
20.0 0.0 0.0 21.0 0.0 0.0 
22.0 0.0 0.0 23.0 0.0 0.0 
24.0 0.0 0.0 25.0 0.0 0.0 
26.0 0.0 0.0 27.0 0.0 0.0 
28.0 0.0 0.0 29.0 0.0 0.0 
30.0 0.0 0.0 31.0 0.0 0.0 
32.0 0.0 0.0 33.0 0.0 0.0 
34.0 0.0 0.0 35.0 0.0 0.0 
36.0 0.0 0.0 37.0 0.0 0.0 
38.0 0.0 0.0 39.0 0.0 0.0 
40.0 0.0 0.0 41.0 0.0 0.0 
42.0 0.0 0.0 43.0 0.0 0.0 
44.0 0.0 0.0 45.0 0.0 0.0 
46.0 0.0 0.0 47.0 0.0 0.0 
48.0 0.0 0.0 49.0 0.0 0.0 
50.0 0.0 0.0 51.0 0.0 0.0 
52.0 0.0 0.0 53.0 0.0 0.0 
54.0 0.0 0.0 55.0 0.0 0.0 
56.0 0.0 0.0 57.0 0.0 0.0 
58.0 0.0 0.0 59.0 0.0 0.0 
60.0 0.0 0.0 61.0 0.0 0.0 
62.0 0.0 0.0 63.0 0.0 0.0 
64.0 0.0 0.0 65.0 0.0 0.0 
66.0 0.0 0.0 67.0 0.0 0.0 
68.0 0.0 0.0 69.0 0.0 0.0 
70.0 0.0 0.0 71.0 0.0 0.0 
72.0 0.0 0.0 73.0 0.0 0.0 
74.0 0.0 0.0 75.0 0.0 0.0 
76.0 0.0 0.0 77.0 0.0 0.0 
78.0 0.0 0.0 79.0 0.0 0.0 
80.0 0.0 0.0 81.0 0.0 0.0 
82.0 0.0 0.0 83.0 0.0 0.0 
84.0 0.0 0.0 85.0 0.0 0.0 
86.0 0.0 0.0 87.0 0.0 0.0 
88.0 0.0 0.0 89.0 0.0 0.0 
90.0 0.0 0.0 91.0 0.0 0.0 
92.0 0.0 0.0 93.0 0.0 0.0 
94.0 0.0 0.0 95.0 0.0 0.0 
96.0 0.0 0.0 97.0 0.0 0.0 
98.0 0.0 0.0 99.0 0.0 0.0 
100.0 1.0 0.0 100.0 2.0 0.0 
100.0 3.0 0.0 100.0 4.0 0.0 
100.0 5.0 0.0 100.0 6.0 0.0 
100.0 7.0 0.0 100.0 8.0 0.0 
100.0 9.0 0.0 100.0 10.0 0.0 
100.0 11.0 0.0 100.0 12.0 0.0 
100.0 13.0 0.0 100.0 14.0 0.0 
100.0 15.0 0.0 100.0 16.0 0.0 
100.0 17.0 0.0 100.0 18.0 0.0 
100.0 19.0 0.0 100.0 20.0 0.0 
100.0 21.0 0.0 100.0 22.0 0.0 
100.0 23.0 0.0 100.0 24.0 0.0 
100.0 25.0 0.0 100.0 26.0 0.0 
100.0 27.0 0.0 100.0 28.0 0.0 
100.0 29.0 0.0 1.0 30.0 0.0 
2.0 30.0 0.0 3.0 30.0 0.0 
4.0 30.0 0.0 5.0 30.0 0.0 
6.0 30.0 0.0 7.0 30.0 0.0 
8.0 30.0 0.0 9.0 30.0 0.0 
10.0 30.0 0.0 11.0 30.0 0.0 
12.0 30.0 0.0 13.0 30.0 0.0 
14.0 30.0 0.0 15.0 30.0 0.0 
16.0 30.0 0.0 17.0 30.0 0.0 
18.0 30.0 0.0 19.0 30.0 0.0 
20.0 30.0 0.0 21.0 30.0 0.0 
22.0 30.0 0.0 23.0 30.0 0.0 
24.0 30.0 0.0 25.0 30.0 0.0 
26.0 30.0 0.0 27.0 30.0 0.0 
28.0 30.0 0.0 29.0 30.0 0.0 
30.0 30.0 0.0 31.0 30.0 0.0 
32.0 30.0 0.0 33.0 30.0 0.0 
34.0 30.0 0.0 35.0 30.0 0.0 
36.0 30.0 0.0 37.0 30.0 0.0 
38.0 30.0 0.0 39.0 30.0 0.0 
40.0 30.0 0.0 41.0 30.0 0.0 
42.0 30.0 0.0 43.0 30.0 0.0 
44.0 30.0 0.0 45.0 30.0 0.0 
46.0 30.0 0.0 47.0 30.0 0.0 
48.0 30.0 0.0 49.0 30.0 0.0 
50.0 30.0 0.0 51.0 30.0 0.0 
52.0 30.0 0.0 53.0 30.0 0.0 
54.0 30.0 0.0 55.0 30.0 0.0 
56.0 30.0 0.0 57.0 30.0 0.0 
58.0 30.0 0.0 59.0 30.0 0.0 
60.0 30.0 0.0 61.0 30.0 0.0 
62.0 30.0 0.0 63.0 30.0 0.0 
64.0 30.0 0.0 65.0 30.0 0.0 
66.0 30.0 0.0 67.0 30.0 0.0 
68.0 30.0 0.0 69.0 30.0 0.0 
70.0 30.0 0.0 71.0 30.0 0.0 
72.0 30.0 0.0 73.0 30.0 0.0 
74.0 30.0 0.0 75.0 30.0 0.0 
76.0 30.0 0.0 77.0 30.0 0.0 
78.0 30.0 0.0 79.0 30.0 0.0 
80.0 30.0 0.0 81.0 30.0 0.0 
82.0 30.0 0.0 83.0 30.0 0.0 
84.0 30.0 0.0 85.0 30.0 0.0 
86.0 30.0 0.0 87.0 30.0 0.0 
88.0 30.0 0.0 89.0 30.0 0.0 
90.0 30.0 0.0 91.0 30.0 0.0 
92.0 30.0 0.0 93.0 30.0 0.0 
94.0 30.0 0.0 95.0 30.0 0.0 
96.0 30.0 0.0 97.0 30.0 0.0 
98.0 30.0 0.0 99.0 30.0 0.0 
16.0 1.0 0.0 22.0 1.0 0.0 
28.0 1.0 0.0 34.0 1.0 0.0 
40.0 1.0 0.0 46.0 1.0 0.0 
52.0 1.0 0.0 58.0 1.0 0.0 
64.0 1.0 0.0 70.0 1.0 0.0 
76.0 1.0 0.0 82.0 1.0 0.0 
15.0 29.0 0.0 20.0 29.0 0.0 
25.0 29.0 0.0 30.0 29.0 0.0 
35.0 29.0 0.0 40.0 29.0 0.0 
45.0 29.0 0.0 50.0 29.0 0.0 
55.0 29.0 0.0 60.0 29.0 0.0 
65.0 29.0 0.0 70.0 29.0 0.0 
75.0 29.0 0.0 80.0 29.0 0.0 
99.0 13.0 0.0 85.0 29.0 0.0 
1.0 12.0 0.0 1.0 18.0 0.0 
99.0 18.0 0.0 88.0 1.0 0.0 
8.99999999994914 0.999999999973743 0.0 99.0 8.0 0.0 
8.0 29.0 0.0 89.0 29.0 0.0 
99.0 22.0 0.0 0.999995859328856 6.99995963616369 0.0 
1.0 23.0 0.0 93.0 1.0 0.0 
93.0 29.0 0.0 4.99897846844128 0.999401131561401 0.0 
99.0 4.0 0.0 99.0 25.0 0.0 
4.0 29.0 0.0 0.998018130894958 3.99456365118287 0.0 
96.0 29.0 0.0 1.0 27.0 0.0 
2.98755098591844 0.99220568858159 0.0 13.0 1.0 0.0 
97.0 1.0 0.0 99.0 27.0 0.0 
0.999999999429266 9.99999999116626 0.0 1.0 16.0 0.0 
20.0 1.0 0.0 26.0 1.0 0.0 
32.0 1.0 0.0 38.0 1.0 0.0 
44.0 1.0 0.0 50.0 1.0 0.0 
56.0 1.0 0.0 62.0 1.0 0.0 
68.0 1.0 0.0 74.0 1.0 0.0 
80.0 1.0 0.0 86.0 1.0 0.0 
99.0 15.0 0.0 10.0 29.0 0.0 
17.0 29.0 0.0 22.0 29.0 0.0 
27.0 29.0 0.0 32.0 29.0 0.0 
37.0 29.0 0.0 42.0 29.0 0.0 
47.0 29.0 0.0 52.0 29.0 0.0 
57.0 29.0 0.0 62.0 29.0 0.0 
67.0 29.0 0.0 72.0 29.0 0.0 
77.0 29.0 0.0 82.0 29.0 0.0 
0.982043965477184 1.98304218642421 0.0 1.0 29.0 0.0 
99.0 1.0 0.0 99.0 29.0 0.0 
0.983223912217958 0.987621281485569 0.0 0.999949380687591 5.99961944502072 0.0 
0.999999970537249 8.99999955168247 0.0 1.0 14.0 0.0 
1.0 20.0 0.0 1.0 22.0 0.0 
1.0 25.0 0.0 6.99998134409618 0.99999175922936 0.0 
10.9999999999491 0.999999999973743 0.0 15.0 1.0 0.0 
18.0 1.0 0.0 24.0 1.0 0.0 
30.0 1.0 0.0 36.0 1.0 0.0 
42.0 1.0 0.0 48.0 1.0 0.0 
54.0 1.0 0.0 60.0 1.0 0.0 
66.0 1.0 0.0 72.0 1.0 0.0 
78.0 1.0 0.0 84.0 1.0 0.0 
90.0 1.0 0.0 92.0 1.0 0.0 
95.0 1.0 0.0 99.0 2.0 0.0 
99.0 5.0 0.0 99.0 6.0 0.0 
99.0 9.0 0.0 99.0 10.0 0.0 
99.0 11.0 0.0 99.0 16.0 0.0 
99.0 19.0 0.0 99.0 20.0 0.0 
99.0 23.0 0.0 2.0 29.0 0.0 
5.0 29.0 0.0 6.0 29.0 0.0 
11.0 29.0 0.0 12.0 29.0 0.0 
13.0 29.0 0.0 18.0 29.0 0.0 
23.0 29.0 0.0 28.0 29.0 0.0 
33.0 29.0 0.0 38.0 29.0 0.0 
43.0 29.0 0.0 48.0 29.0 0.0 
53.0 29.0 0.0 58.0 29.0 0.0 
63.0 29.0 0.0 68.0 29.0 0.0 
73.0 29.0 0.0 78.0 29.0 0.0 
83.0 29.0 0.0 86.0 29.0 0.0 
87.0 29.0 0.0 90.0 29.0 0.0 
91.0 29.0 0.0 94.0 29.0 0.0 
97.0 29.0 0.0 16.0 2.0 0.0 
22.0 28.0 0.0 27.0 28.0 0.0 
52.0 28.0 0.0 57.0 28.0 0.0 
82.0 28.0 0.0 32.0 28.0 0.0 
37.0 28.0 0.0 62.0 28.0 0.0 
67.0 28.0 0.0 42.0 28.0 0.0 
72.0 28.0 0.0 98.0 15.0 0.0 
12.0 28.0 0.0 98.0 19.0 0.0 
89.0 28.0 0.0 98.0 10.0 0.0 
1.99999999531953 9.999999928767 0.0 93.0 2.0 0.0 
2.0 23.0 0.0 98.0 22.0 0.0 
93.0 28.0 0.0 1.99998433821395 6.9998796865685 0.0 
98.0 5.0 0.0 5.0 28.0 0.0 
85.0 28.0 0.0 96.0 28.0 0.0 
1.98413137230705 0.988341966066793 0.0 0.993390117123437 2.98985247870427 0.0 
0.999537928146093 4.99813727245904 0.0 0.999998442801018 7.99998651096591 0.0 
0.999999999636129 10.9999999944437 0.0 1.0 13.0 0.0 
1.0 15.0 0.0 1.0 17.0 0.0 
1.0 19.0 0.0 1.0 21.0 0.0 
1.0 24.0 0.0 1.0 26.0 0.0 
1.0 28.0 0.0 3.99605406296194 0.997383435909015 0.0 
5.99977465143194 0.999865295129002 0.0 7.9999965299808 0.999998450318377 0.0 
9.99999999988557 0.999999999940923 0.0 11.9999999999936 0.999999999996718 0.0 
14.0 1.0 0.0 17.0 1.0 0.0 
19.0 1.0 0.0 21.0 1.0 0.0 
23.0 1.0 0.0 25.0 1.0 0.0 
27.0 1.0 0.0 29.0 1.0 0.0 
31.0 1.0 0.0 33.0 1.0 0.0 
35.0 1.0 0.0 37.0 1.0 0.0 
39.0 1.0 0.0 41.0 1.0 0.0 
43.0 1.0 0.0 45.0 1.0 0.0 
47.0 1.0 0.0 49.0 1.0 0.0 
51.0 1.0 0.0 53.0 1.0 0.0 
55.0 1.0 0.0 57.0 1.0 0.0 
59.0 1.0 0.0 61.0 1.0 0.0 
63.0 1.0 0.0 65.0 1.0 0.0 
67.0 1.0 0.0 69.0 1.0 0.0 
71.0 1.0 0.0 73.0 1.0 0.0 
75.0 1.0 0.0 77.0 1.0 0.0 
79.0 1.0 0.0 81.0 1.0 0.0 
83.0 1.0 0.0 85.0 1.0 0.0 
87.0 1.0 0.0 89.0 1.0 0.0 
91.0 1.0 0.0 94.0 1.0 0.0 
96.0 1.0 0.0 98.0 1.0 0.0 
99.0 3.0 0.0 99.0 7.0 0.0 
99.0 12.0 0.0 99.0 14.0 0.0 
99.0 17.0 0.0 99.0 21.0 0.0 
99.0 24.0 0.0 99.0 26.0 0.0 
99.0 28.0 0.0 3.0 29.0 0.0 
7.0 29.0 0.0 9.0 29.0 0.0 
14.0 29.0 0.0 16.0 29.0 0.0 
19.0 29.0 0.0 21.0 29.0 0.0 
24.0 29.0 0.0 26.0 29.0 0.0 
29.0 29.0 0.0 31.0 29.0 0.0 
34.0 29.0 0.0 36.0 29.0 0.0 
39.0 29.0 0.0 41.0 29.0 0.0 
44.0 29.0 0.0 46.0 29.0 0.0 
49.0 29.0 0.0 51.0 29.0 0.0 
54.0 29.0 0.0 56.0 29.0 0.0 
59.0 29.0 0.0 61.0 29.0 0.0 
64.0 29.0 0.0 66.0 29.0 0.0 
69.0 29.0 0.0 71.0 29.0 0.0 
74.0 29.0 0.0 76.0 29.0 0.0 
79.0 29.0 0.0 81.0 29.0 0.0 
84.0 29.0 0.0 88.0 29.0 0.0 
92.0 29.0 0.0 95.0 29.0 0.0 
98.0 29.0 0.0 98.0 8.0 0.0 
10.0 28.0 0.0 86.0 28.0 0.0 
90.0 28.0 0.0 22.0 2.0 0.0 
28.0 2.0 0.0 34.0 2.0 0.0 
40.0 2.0 0.0 46.0 2.0 0.0 
52.0 2.0 0.0 58.0 2.0 0.0 
64.0 2.0 0.0 70.0 2.0 0.0 
76.0 2.0 0.0 82.0 2.0 0.0 
2.0 16.0 0.0 85.0 27.0 0.0 
88.0 2.0 0.0 11.9999999999928 1.99999999999631 0.0 
89.0 27.0 0.0 8.99999961400676 1.99999982348209 0.0 
5.9997075717904 1.99979502371096 0.0 1.99934767917968 4.99734291783241 0.0 
16.0 28.0 0.0 46.0 28.0 0.0 
76.0 28.0 0.0 2.0 27.0 0.0 
3.99556896721827 1.99618513026716 0.0 97.0 2.0 0.0 
2.0 20.0 0.0 94.0 28.0 0.0 
24.0 28.0 0.0 29.0 28.0 0.0 
34.0 28.0 0.0 39.0 28.0 0.0 
54.0 28.0 0.0 59.0 28.0 0.0 
64.0 28.0 0.0 69.0 28.0 0.0 
98.0 12.0 0.0 7.0 28.0 0.0 
98.0 24.0 0.0 97.0 28.0 0.0 
20.0 2.0 0.0 26.0 2.0 0.0 
32.0 2.0 0.0 38.0 2.0 0.0 
44.0 2.0 0.0 50.0 2.0 0.0 
56.0 2.0 0.0 62.0 2.0 0.0 
68.0 2.0 0.0 74.0 2.0 0.0 
80.0 2.0 0.0 86.0 2.0 0.0 
1.99999981323511 8.99999805583899 0.0 2.0 14.0 0.0 
91.0 2.0 0.0 98.0 20.0 0.0 
18.0 28.0 0.0 48.0 28.0 0.0 
78.0 28.0 0.0 83.0 28.0 0.0 
87.0 28.0 0.0 91.0 28.0 0.0 
98.0 7.0 0.0 14.0 28.0 0.0 
20.0 28.0 0.0 25.0 28.0 0.0 
30.0 28.0 0.0 35.0 28.0 0.0 
40.0 28.0 0.0 44.0 28.0 0.0 
50.0 28.0 0.0 55.0 28.0 0.0 
60.0 28.0 0.0 65.0 28.0 0.0 
70.0 28.0 0.0 74.0 28.0 0.0 
80.0 28.0 0.0 98.0 13.0 0.0 
1.99999999996321 11.9999999994391 0.0 2.0 18.0 0.0 
98.0 17.0 0.0 98.0 18.0 0.0 
8.0 28.0 0.0 98.0 3.0 0.0 
98.0 4.0 0.0 98.0 25.0 0.0 
3.0 28.0 0.0 4.0 28.0 0.0 
1.9971839117747 3.993137435461 0.0 1.98608618048036 1.98526975763388 0.0 
14.0 2.0 0.0 98.0 26.0 0.0 
98.0 27.0 0.0 1.99983949066551 5.99923056007149 0.0 
2.0 22.0 0.0 2.0 25.0 0.0 
7.99999502590895 1.99999772908988 0.0 10.9999999997687 1.99999999988056 0.0 
15.0 2.0 0.0 18.0 2.0 0.0 
[...]
CELL_DATA 3000

SCALARS element_states float
LOOKUP_TABLE default
1 1 1 1 1 0 0 0 0 0 0 0 1 0 0 0 0 0 0 0 0 0 0 0 0 0 0 0 0 0 
0 0 0 0 0 0 0 0 0 1 0 0 0 1 1 0 0 0 0 0 0 0 1 1 1 1 1 1 1 1 
1 1 0 0 0 0 0 0 0 0 0 0 0 0 0 0 0 0 0 1 1 1 1 1 1 1 1 1 1 1 
1 1 1 1 1 1 1 1 1 1 1 1 1 1 1 1 1 1 1 1 1 1 1 1 1 1 1 1 1 1 
1 1 1 1 1 1 1 1 1 1 1 1 1 1 1 1 1 1 1 1 1 1 1 1 1 1 1 1 1 1 
1 1 1 1 1 1 1 1 1 1 1 1 1 1 1 1 1 1 1 1 1 1 1 1 1 1 1 1 1 1 
1 1 1 1 1 1 1 1 0 0 0 0 0 0 0 0 0 0 0 0 0 0 0 0 0 0 0 0 0 0 
0 0 0 1 1 1 1 1 1 1 1 1 1 1 1 1 1 1 1 1 1 1 1 1 1 1 1 1 1 1 
1 1 1 1 1 1 1 1 1 1 1 1 1 1 1 1 1 1 1 1 1 1 1 1 1 1 1 1 1 1 
1 1 1 1 1 1 1 0 0 0 0 0 0 0 0 0 0 0 0 0 0 0 0 0 0 0 0 0 0 0 
0 0 0 0 0 0 0 0 0 0 0 1 1 1 1 1 1 1 1 1 1 1 0 0 0 0 0 0 1 1 
1 1 1 0 1 1 1 1 1 1 0 1 1 1 1 0 0 1 0 1 0 0 1 1 1 1 1 1 1 1 
1 1 0 0 0 0 0 0 0 0 0 0 0 1 1 1 1 1 1 1 1 1 1 1 1 1 1 1 1 1 
1 1 1 1 1 1 1 0 0 0 0 0 0 0 0 0 0 1 1 1 1 1 0 1 1 1 0 1 0 0 
1 1 0 0 1 1 0 0 0 0 0 0 0 0 0 0 0 0 0 0 0 0 0 0 1 1 1 1 1 1 
1 1 1 1 1 1 1 1 1 1 1 1 1 1 1 1 1 1 1 1 1 1 1 1 1 1 1 1 1 1 
1 1 1 1 1 1 1 1 1 1 1 1 1 1 1 1 1 1 1 1 1 1 1 1 1 1 1 1 1 1 
1 1 1 1 1 1 1 1 1 1 1 1 1 1 1 1 1 1 1 0 0 0 0 0 0 1 1 1 1 1 
1 1 1 1 1 1 1 1 1 1 0 0 0 0 0 0 0 0 1 1 0 0 0 0 0 0 0 0 0 0 
1 1 1 0 0 1 1 0 0 0 0 0 1 1 0 0 0 0 0 0 0 0 1 1 1 1 1 1 1 1 
1 0 0 0 0 0 0 0 1 1 0 0 1 1 1 1 0 0 1 0 0 1 1 1 1 0 0 0 0 1 
0 0 0 0 0 0 0 1 1 1 1 1 1 1 1 1 1 1 1 1 1 1 1 1 1 0 1 1 1 1 
1 1 1 1 1 1 0 0 1 1 1 1 1 1 1 1 1 1 0 0 0 0 0 0 0 0 1 1 0 0 
0 0 0 0 1 1 1 1 1 0 1 1 0 1 1 0 0 1 1 1 1 1 1 1 1 1 0 0 1 1 
1 1 1 0 0 0 0 0 0 0 0 1 1 1 1 1 1 1 1 1 1 1 1 1 1 1 1 1 1 1 
1 1 1 1 1 1 1 1 1 1 1 1 1 1 1 1 1 1 1 1 1 1 1 1 1 0 0 0 0 0 
0 0 0 0 0 0 0 0 0 0 0 0 0 0 0 0 0 0 0 0 0 0 1 1 1 1 1 1 0 0 
0 1 0 0 0 1 0 0 0 0 0 1 1 1 1 1 1 1 1 1 1 1 1 1 1 1 0 0 0 0 
1 1 1 0 1 1 1 1 1 1 1 1 1 1 0 1 0 0 0 0 0 0 0 0 0 1 1 0 1 1 
1 1 1 1 0 0 0 0 1 1 1 1 0 0 0 1 1 1 1 1 0 0 0 0 1 1 1 1 1 1 
0 0 0 0 1 1 1 0 0 0 0 1 0 1 0 1 1 1 1 1 0 0 0 1 1 1 0 0 0 0 
1 1 0 0 1 0 0 1 1 1 1 1 1 1 1 0 0 1 1 0 0 0 0 0 0 0 0 0 0 0 
0 0 0 0 0 0 0 1 1 1 1 1 1 1 1 1 1 1 1 1 0 0 1 1 1 1 1 1 0 0 
0 1 1 1 1 0 0 0 1 1 0 0 1 1 1 0 0 0 1 0 0 0 0 1 0 0 0 0 0 0 
1 1 1 1 0 0 0 0 1 1 1 1 0 0 1 1 0 1 1 1 1 1 1 1 0 1 1 1 1 1 
1 1 1 1 1 1 0 1 0 0 0 0 0 1 1 0 0 0 0 1 1 1 1 1 1 1 1 1 1 1 
1 1 1 1 1 0 0 0 1 1 1 1 1 1 1 1 1 1 1 1 1 1 1 1 1 1 1 0 0 0 
0 0 0 0 0 1 1 1 0 0 0 0 1 0 1 0 0 0 0 1 1 1 0 1 0 0 0 0 0 0 
1 1 1 0 1 0 0 1 1 0 0 1 0 0 0 0 0 0 1 0 1 1 1 0 1 1 1 1 0 0 
0 1 1 1 1 1 1 1 1 1 0 1 1 1 0 0 0 0 1 1 1 0 1 0 0 0 0 0 1 0 
1 1 0 1 0 1 1 1 1 1 0 0 1 1 0 0 0 0 0 0 0 0 0 0 0 0 1 1 1 0 
0 1 1 0 0 1 0 1 1 0 0 0 0 0 0 1 1 1 0 0 1 1 0 0 0 1 1 1 1 1 
0 0 1 1 1 0 0 1 0 0 1 0 0 1 0 1 0 1 0 1 0 0 0 0 0 1 0 0 0 0 
0 0 1 0 1 1 1 1 0 0 0 1 1 1 1 0 0 0 0 1 1 1 0 0 0 0 1 0 0 0 
0 0 0 0 0 0 1 0 0 0 0 1 0 0 1 1 1 1 1 1 1 1 0 1 1 1 1 0 0 0 
1 0 0 1 1 1 0 0 0 0 0 0 0 1 0 0 0 0 0 0 0 0 0 1 1 1 1 1 0 0 
0 0 1 1 0 0 1 1 0 0 1 1 0 1 0 0 1 0 0 0 0 0 0 0 0 0 1 1 1 0 
0 0 0 1 0 0 1 0 0 0 0 1 1 0 0 0 0 0 0 0 0 0 0 0 0 0 1 1 1 1 
0 0 0 0 1 1 0 0 0 0 0 0 0 0 0 1 0 0 1 1 0 0 0 0 0 0 0 1 0 0 
0 0 1 0 0 0 1 1 0 0 1 0 0 0 0 0 0 0 1 1 0 0 0 0 0 1 0 0 0 0 
1 1 1 1 0 1 0 0 1 1 1 1 1 0 0 0 0 0 1 0 0 0 0 1 1 1 0 0 1 1 
0 0 0 0 0 1 0 1 0 0 0 0 1 0 0 0 0 0 0 0 0 1 0 0 0 0 1 0 0 0 
1 1 1 1 0 0 1 1 0 0 0 0 1 0 0 0 0 0 0 1 0 0 0 1 1 1 0 1 0 0 
0 0 0 0 0 0 0 0 0 1 1 1 1 1 1 1 1 0 1 1 0 0 0 0 0 0 0 0 0 0 
0 0 1 1 0 0 0 0 1 1 0 0 0 0 1 1 0 0 0 1 1 0 0 0 1 1 0 0 0 0 
0 0 0 0 0 0 0 1 1 0 0 1 1 0 1 0 0 0 0 1 0 1 1 1 0 0 1 1 1 0 
0 1 0 0 0 0 0 1 0 0 0 0 0 0 1 0 1 1 0 0 0 1 1 0 0 0 0 1 0 0 
0 0 1 0 0 0 1 1 0 0 0 0 1 1 0 0 0 0 1 0 0 0 0 0 0 1 1 0 0 0 
0 0 0 0 0 1 0 1 1 0 0 1 1 0 0 1 1 0 0 0 0 0 0 0 0 0 0 1 0 1 
0 0 1 0 0 0 1 1 1 1 0 0 0 1 0 0 0 0 1 1 1 0 0 0 1 0 0 0 0 0 
0 0 0 0 0 0 0 0 0 0 0 0 0 0 1 1 0 0 0 0 0 0 0 1 1 1 1 0 1 1 
1 0 0 1 0 0 0 0 0 0 0 1 1 1 1 0 0 1 0 0 0 0 0 0 0 0 0 0 1 1 
0 0 0 0 0 1 0 0 1 0 1 0 0 0 0 0 0 0 0 1 1 0 0 0 0 0 0 0 0 1 
1 0 0 0 1 1 1 0 0 0 0 1 1 0 0 0 0 0 0 0 0 0 0 0 0 0 0 0 0 1 
1 0 0 0 1 1 0 0 0 0 0 0 0 0 0 0 0 0 0 0 1 0 1 0 0 0 1 1 0 0 
0 0 1 0 0 0 0 0 0 0 1 0 0 0 0 0 0 0 0 0 0 0 0 0 1 0 0 0 0 0 
0 0 0 0 1 0 1 0 0 0 1 1 0 0 0 0 0 0 1 1 0 0 0 0 1 0 1 1 0 1 
0 0 0 0 0 1 0 1 0 0 0 1 0 0 0 0 0 1 0 0 0 0 0 0 1 0 0 0 0 0 
0 1 1 1 0 0 0 0 0 0 0 0 0 0 0 1 1 0 0 0 0 1 1 0 1 0 1 1 0 0 
0 0 0 0 0 0 0 0 0 0 0 0 0 1 0 0 0 0 0 0 1 0 0 0 0 0 0 0 0 0 
0 1 1 0 0 0 0 0 0 0 0 1 1 0 0 0 0 1 0 0 0 0 0 0 0 0 1 0 0 0 
0 0 1 1 0 0 0 1 0 0 0 1 0 0 0 0 0 0 0 0 0 0 0 0 0 0 0 0 0 0 
0 0 1 0 1 1 0 0 0 0 0 1 1 0 1 0 0 0 0 1 0 0 0 0 0 0 0 0 0 1 
0 1 0 0 0 1 0 0 0 1 1 0 0 0 0 0 1 0 0 0 1 0 0 0 0 0 0 0 0 0 
1 0 0 0 1 1 1 1 0 0 0 0 1 0 0 0 0 1 0 0 0 0 0 0 0 0 0 0 0 0 
0 0 1 1 0 0 0 1 1 0 0 1 0 0 0 0 0 0 0 0 0 0 0 0 0 0 0 1 1 0 
0 0 0 0 1 1 1 0 0 0 0 0 0 0 0 0 0 0 0 1 1 0 0 0 0 1 0 0 0 0 
0 0 0 0 1 0 0 0 1 0 0 0 0 0 0 1 1 0 0 0 0 0 0 0 0 0 0 0 0 0 
1 1 0 0 0 0 0 0 0 0 0 0 0 0 1 0 0 1 1 0 0 0 0 0 0 0 0 1 0 1 
0 1 0 0 1 0 0 0 0 0 0 1 1 0 0 1 0 0 0 0 0 1 0 1 1 0 1 0 0 1 
0 0 1 1 0 0 0 0 0 0 0 0 0 0 0 0 0 0 0 0 0 0 0 0 0 0 0 0 0 1 
1 0 1 0 0 0 1 0 0 0 1 0 0 0 0 0 0 1 1 0 0 0 0 1 1 0 0 1 0 0 
0 1 1 0 0 0 0 0 0 0 0 0 1 0 0 0 0 0 0 0 0 0 0 1 0 1 1 1 1 0 
0 0 0 0 0 0 0 0 0 1 1 0 0 0 0 0 0 0 0 0 0 0 0 0 1 1 1 1 1 1 
0 0 0 0 0 0 0 0 1 0 0 0 0 1 0 0 0 0 0 0 0 0 0 0 1 0 0 0 0 0 
1 1 1 0 0 0 0 0 0 0 0 1 1 1 0 0 0 0 0 0 0 1 1 0 0 0 0 1 0 0 
1 0 0 1 0 1 0 0 1 0 0 0 0 1 1 1 0 0 1 1 1 0 0 0 0 0 0 0 0 0 
0 0 0 0 0 0 0 0 0 0 0 0 1 0 0 0 1 1 1 1 0 0 1 1 0 1 1 0 0 0 
0 1 1 1 0 0 0 1 1 0 0 0 0 0 0 0 0 0 0 1 0 0 0 0 0 0 0 0 0 0 
0 0 0 1 1 1 0 0 0 0 0 0 0 1 0 0 1 0 0 0 0 1 1 0 0 0 0 0 0 0 
0 0 0 0 0 0 0 0 0 1 0 0 0 0 0 0 0 0 0 0 0 0 0 0 0 1 0 1 1 0 
0 0 1 1 1 1 0 0 0 0 0 0 0 0 1 0 0 1 0 0 0 0 0 0 0 0 0 0 0 0 
0 1 0 0 0 0 0 0 0 0 1 1 1 0 0 0 0 0 0 0 0 0 0 0 0 0 0 1 0 0 
0 0 0 0 1 0 0 0 0 1 1 0 0 0 0 0 0 0 0 0 0 0 0 0 0 0 0 0 1 0 
0 0 0 0 0 0 0 0 0 0 0 0 1 1 0 0 1 0 0 0 0 0 0 0 0 0 0 1 0 0 
0 0 0 0 0 0 0 0 1 0 0 1 1 0 0 0 0 0 1 1 1 1 1 1 0 0 0 0 0 0 
0 0 0 0 0 0 0 0 0 0 0 0 0 0 0 0 1 1 1 0 0 0 0 0 0 0 0 0 0 0 
0 0 0 1 0 1 0 0 0 0 0 0 0 0 1 1 0 0 0 0 0 0 1 0 0 0 0 0 0 1 
1 1 0 0 0 0 0 0 0 0 0 0 0 0 0 0 0 0 0 1 1 0 0 0 1 0 0 0 1 1 
1 0 0 0 0 0 0 1 0 1 0 0 1 0 1 1 1 1 0 1 0 0 0 0 1 1 0 1 1 1 


SCALARS sensitivity_number float
LOOKUP_TABLE default
0.1317302691967589 0.1367811251184581 0.14190064758336798 0.1368220188454588 0.1419463377960889 0.056709535563385545 
8.085236315605272e-07 0.007540901177266875 2.201297428044675e-07 0.04299703461054048 0.018680626806625272 0.005437688724714409 
0.08485394641157802 1.8158136291781377e-08 1.3073483687532842e-08 2.467571514875975e-08 1.8953812497760088e-08 0.07046524275992952 
0.008610772369069911 8.133213365622802e-07 8.46445285299563e-07 8.252065126911113e-07 8.161759444789906e-07 8.094277897034565e-07 
8.121943855086506e-07 7.999505652951938e-07 8.221749185146119e-07 1.1070968523439489e-07 5.199521890182783e-07 0.009240501139595035 
4.93524482724502e-07 4.4641201388785404e-07 4.6907980001615835e-07 0.03189381507088949 4.786402051924158e-07 0.03941993045710074 
4.745790949301327e-07 2.2855595736371846e-07 4.691703788278587e-07 0.05574049233176902 5.290366229996816e-07 5.578892468689155e-07 
4.983900023861686e-07 0.047684674681040776 0.06722095628039612 4.6509064271728067e-07 5.256340070022535e-07 4.950287877716833e-07 
5.919264955919471e-07 0.02990584117943211 0.007001713556118593 5.525778531654933e-07 0.05530254119427338 0.10607132016056485 
0.11411799252220999 0.09076741535431555 0.12976329668336004 0.1318042209345873 0.14195207899919401 0.1368209008458747 
0.14700546798530453 0.09234783652373925 0.057783760374737696 9.760425947024514e-07 9.997396442262613e-07 9.941780297116108e-07 
1.0216068228823704e-06 1.0080365795793637e-06 1.0353986191249994e-06 1.049804971119897e-06 1.0813019569349654e-06 1.0651043944466509e-06 
1.115213729142066e-06 1.0985073272973062e-06 1.1346495431065755e-06 1.1496745877368592e-06 1.1993392562644674e-06 1.2054855765894641e-06 
0.0702935736166438 0.078656958253066 0.11346329851392006 0.1273970655797227 0.0975231249151003 0.21593595013036015 
0.3536662001420978 0.3548513591585329 0.12928151790806902 0.12926199023574375 0.12925247712322124 0.12923603118305813 
0.12921114502540076 0.12925074533926864 0.1291939673277124 0.1296483256516705 0.13075510543591612 0.1366871043984824 
0.13320497560079048 0.14056385089736678 0.14401745461866206 0.146537461829332 0.14812076985617237 0.1489669609487547 
0.14943874278797056 0.14933239756960753 0.1493991093774122 0.14943448305707738 0.1493591129099311 0.14932476882642068 
0.14926494243494845 0.14929485356199515 0.14920291419480303 0.14923266325546455 0.14920417055087415 0.14929718434332934 
0.1503157624358899 0.14960220501587712 0.15383338766930024 0.15167581699505853 0.15674800906206005 0.16014161619765865 
0.16693392998136666 0.16361905669892923 0.1739404297852425 0.17020089838596184 0.17905740246012514 0.18645064544284062 
0.20476343671615613 0.1957817517446854 0.210143884153208 0.2098474918639877 0.20390586576636982 0.19086064024140106 
0.14464011842494964 0.16952298816205705 0.10644828923493248 0.12262283759257582 0.09325952019872337 0.08192889786115361 
0.07666947525183324 0.0760250232603832 0.0908809746224366 0.08338755263353123 0.0988182383081491 0.10978748713442543 
0.11248569692798333 0.11211466028704514 0.11109553792856253 0.11173133031493582 0.11050595534335603 0.10994159558869933 
0.10879640870353423 0.10936779088115596 0.10765335748933243 0.10822473321137328 0.10708211488315894 0.10651103921693625 
0.10536935772515148 0.1059401242688884 0.10422825675610393 0.10479874434067821 0.10365791000459865 0.10308768280260326 
0.1020673046666947 0.10251758490206778 0.10217581038194365 0.10196657697756721 0.10266969911657843 0.10316351279419932 
0.10415093194442346 0.10365725754016855 0.10513809288362748 0.10464454647716356 0.10563145847164576 0.10612500221430926 
0.10661967125768147 0.10711620283236002 0.1075468479579841 0.10854176930585958 0.10864085665905548 0.1066205007777587 
0.10785479872245189 0.11389375264121619 0.2346831695964106 0.19621717799416083 0.23121432794584643 0.10429601281500157 
0.15119824024153664 0.0617664652818779 0.020588266082134366 1.970671784273413e-07 2.3126724629811848e-07 1.6249819728882156e-07 
1.4739588008515457e-07 1.3226396719733598e-07 1.0699552032253222e-07 1.1942372793316557e-07 9.527780679581527e-08 8.420630476429781e-08 
7.383648592835564e-08 5.509967587725404e-08 6.412292772630813e-08 4.669297323020261e-08 3.8890444911550185e-08 2.5206587674030623e-08 
3.171626207477626e-08 1.9387672658514673e-08 9.888664465630143e-09 1.4277376608384561e-08 6.420997438783144e-09 3.843019196728898e-09 
2.098023041816908e-09 1.2996035688728263e-09 1.3079885775913589e-09 0.3918332354603329 0.32462652229095984 0.35746569196933975 
0.3083856217261736 0.28925702151589755 0.24508333762081916 0.26846513456389154 0.22018097393121067 0.1951609575664619 
0.1716131884836745 0.15083023058543962 0.13374470281648787 0.10875068830217016 0.11975486810285756 0.09959562171606794 
0.09188254602529777 0.0856380668771123 0.07781504317391742 0.08097065204874568 0.07589738932250294 0.07486999399472323 
0.07446880806477295 0.07527903264154824 0.07460766411160558 0.0764203068758907 0.07783166504095157 0.07926580130039225 
0.08068660843845454 0.08038915341192229 0.08000864377629874 0.07864817721447795 0.07744604424075359 0.07904865283058936 
0.07767381520898226 0.08115323534257875 0.08317640973485525 0.08505651738879504 0.08866359246706894 0.08686181878655426 
0.09047256246519089 0.09228795853934572 0.09410634842625754 0.09775454558374444 0.09592588971570336 0.09991547700161449 
0.10229075735691355 0.10499132436055165 0.11037304182858933 0.10768754129640547 0.11304178820873978 0.11569426194031227 
0.1183981207614132 0.12513764345787617 0.12136781122546063 0.13020851357723523 0.13648404907140899 0.14235894256340537 
0.14437956757738968 0.14566432183513905 0.13741494902421414 0.12448247195533914 0.10862724047216477 0.06848634874722086 
0.09151496529735534 0.048878395596683194 0.013051549855845935 1.3793033185847507e-07 1.235949364743491e-07 1.1544168997202349e-07 
1.2957249665727448e-07 1.246030147668872e-07 1.2271606312479526e-07 1.2045798767228495e-07 1.2206462602105864e-07 1.1990787969959474e-07 
1.2011255322244626e-07 1.2088431736230135e-07 1.2060346881841055e-07 1.2119987701595548e-07 1.1879207051294551e-07 1.1529834425680584e-07 
1.0994651444685559e-07 9.388156768381844e-08 1.0272229786166578e-07 8.383159925756876e-08 7.314033558394924e-08 5.2238288778702766e-08 
6.239719691349307e-08 4.281976230835546e-08 3.4540011057048156e-08 2.0695637888446306e-08 2.7181313351955746e-08 1.034016836946639e-08 
1.5083340118284547e-08 6.630141524678321e-09 3.9295615742374e-09 1.3014257421911257e-09 2.112535709146056e-09 0.10120348676229378 
0.1101759324941352 0.07676016880133761 0.08444222147093669 0.08627754494232344 0.09306074752619109 0.09986234557743928 
0.09846964586591 0.1171083721563064 0.13495297701965428 0.0814757647613356 0.006337733128224373 1.1938358874509782e-07 
1.2123443062609053e-07 1.0842315830060807e-07 4.981768096485428e-08 5.806256234274717e-08 0.2298786115229212 0.13171534117894504 
0.13171997400419488 0.06476784984128402 0.10114382978008303 1.2610624435593076e-08 0.28064855989339965 0.2962156062619622 
0.141934278685653 0.1470184362129782 0.1355652140495359 0.13875332108578117 5.453154333240962e-09 0.09342585760428485 
0.08697108139671923 0.10153535669789428 0.10350597502902505 1.1922956799436557e-07 1.1929935058322548e-07 0.13679911450636506 
0.052047365554442636 0.09830235957956963 9.908198042244135e-07 0.059588726123246394 0.1316729940356494 0.13152471985732897 
0.1328209041393611 0.1430093557713981 0.1413461964579404 0.07063115439559045 0.07129902599817257 0.07103075992453776 
0.18549082251882956 0.12207507229630134 0.04598459124887759 0.010326986180239668 1.4493552779949592e-07 1.5892692494484698e-07 
1.3253879542322733e-07 1.2034002931553966e-07 7.621675033309444e-08 6.685924432651797e-08 4.215410337401288e-08 2.2670412577810456e-08 
1.7340572237832606e-08 0.3199931643228864 0.3138022664234456 0.26591257826144576 0.24905147140110448 0.14806570559239093 
0.16650223853652277 0.13275786437292575 0.1204544228161253 0.07593184382673064 0.07605919247327442 0.08130595345071637 
0.08310087913548439 0.0831564735763006 0.08403864742397744 0.090938200548487 0.09200612453426617 0.09628954310081603 
0.0973763213529717 0.11316920037129904 0.11502969320488443 0.1300410808154765 0.13410767434396872 0.10919165098752104 
0.09577765241252852 0.03143336689167875 0.01869973732800556 1.3462650997378563e-07 1.2573517317723643e-07 1.0830349654664203e-07 
8.455031100211105e-08 7.46061823744721e-08 4.599784336182407e-08 3.785447604968592e-08 5.532619491385525e-09 0.14383398006725323 
0.07624646179565868 0.07951784157058185 0.11131905391701122 0.12462505847605149 1.1315072155857418e-07 0.08353414287685089 
0.0897767054161035 0.12207552000970258 0.05129042144126011 0.09520530446583696 1.3701918747227845e-07 8.624888877335681e-08 
0.13109899693720892 0.14228305338161845 5.489533630145449e-08 1.004333727203036e-06 0.07150922072806143 0.08648353725939713 
2.858518259974412e-08 2.3973642360842532e-08 9.77409101444416e-07 9.381599362388022e-08 8.810399809312695e-09 1.3769297384551538e-08 
9.94700123760073e-07 1.0175788400005039e-06 1.0451987800658545e-06 1.0310683386476546e-06 1.0763349054820406e-06 1.060262720025044e-06 
1.0935770383298928e-06 1.110854595002397e-06 1.147305507801909e-06 1.1305575580535012e-06 1.1916301097034647e-06 1.2057441782294973e-06 
0.11206156847632748 0.13766168217765853 0.09818808245173587 0.22627293272272128 0.13171060125113832 0.13124074558783094 
0.1309558640763947 0.13127959916872284 0.1440946977173955 0.14405955177255345 0.14411561631789152 0.143959907441337 
0.1440016366904647 0.14393354600624128 0.14391722039641913 0.14389107772386042 0.14390473128621437 0.1438482484654823 
0.14387265863863666 0.14382295497408198 0.1438209392268122 0.1442310386867912 0.14390636507775012 0.1464194083931227 
0.14498888008072863 0.1485450437203611 0.1510436220274291 0.15527455084331163 0.15341060819136096 0.15710583087575605 
0.15641451243020407 0.15818257167148558 0.160866569249573 0.17113740494437935 0.16564696495304007 0.17450236948281417 
0.17531800362055777 0.16900109848184913 0.15837818991635733 0.13193080734743304 0.1455817588201535 0.1041415783613256 
0.11751520977421145 0.09267084990669981 0.08146634693151082 0.07043682525513904 0.07270081204624648 0.08367526002950659 
0.07555635826776613 0.08651863823726993 0.07381881834571448 0.07319976970920491 0.07335437164277805 0.07224555323894193 
0.07250527967196473 0.07188605490928868 0.07156847745839442 0.07091476614250035 0.0712401871417823 0.07026291966649419 
0.07058868555666792 0.06993718545080294 0.06961156252008684 0.06896057995737152 0.06928602932832274 0.06830993068755967 
0.06863521567665883 0.06798471904833667 0.06765958160425294 0.06708361007382144 0.06733451397686212 0.06726118395724232 
0.06707837706834814 0.06763581455628076 0.06801038620403635 0.06875937083179229 0.06838490478925922 0.06950819358146729 
0.06913378087100633 0.06988250611507414 0.07025592111846246 0.07695047366922703 0.09300038571455564 0.08527091384479865 
0.11314856320269709 1.7744424751626018e-07 9.699750432819505e-08 3.507825875301006e-08 8.588691848895557e-09 1.941432232678854e-09 
3.2595574289459934e-09 0.1872225145348215 0.20886801570638397 0.08211506982275027 0.07892193737728424 0.07712980541777849 
0.07794481375744439 0.08452089760507354 0.08828344065386678 0.0941274852887442 0.10547804572200349 0.10744742276714404 
0.10940042337777481 0.12010579231575945 0.13108668356363293 0.056152831669270466 1.3316545678138202e-07 1.189613674823415e-07 
1.1822328551193798e-07 1.1637332824585721e-07 1.0184940593405096e-07 6.455442023561841e-08 3.0529448226153534e-08 3.276179323667395e-09 
0.15563261270203743 0.17023020476372894 8.66536392459641e-08 5.2489394917415715e-08 1.080922077087202e-06 9.454813453365415e-08 
9.904392838834559e-08 0.033785524538419216 0.03365245609862408 6.072078561009085e-08 6.706478287540158e-08 5.925505911212198e-08 
0.13682560974543242 0.23323463054808985 0.09183348041611239 1.1834190989047254e-06 1.2300952645866274e-07 0.19684373228289376 
0.2071880911323201 5.5936235263337574e-09 9.246549150693051e-09 0.033918697919252054 9.823837250557037e-07 4.908742110232545e-08 
0.0897173903608795 0.10045797180168538 1.1577192351801442e-07 1.0103730202923212e-07 1.058008596540589e-07 7.807158342685759e-08 
6.932511301021397e-08 4.477237658020654e-08 0.009556161669319389 0.04297478938435529 0.12179240370792149 0.07986417130677963 
0.09087672504802155 0.10245830666062047 0.10226224779625916 0.10045792547883095 0.10148825199426476 0.11515411137393809 
0.0992046529600527 0.0439441149196388 1.3985574917689208e-07 1.1177903803650785e-07 1.0987491801288912e-06 1.120204383750273e-06 
5.64931871246758e-08 6.435219400553672e-08 0.09007733920620863 0.09570557917575509 1.3544226745608745e-08 1.8478148621938815e-08 
0.22237847019709836 0.22999926728173878 0.14699872453670126 0.13567058501024476 9.17324275094648e-09 0.05204758857324182 
0.09828514173333788 0.05105866969567881 1.195022959320076e-06 0.1358100607288931 0.13657050801308157 0.1322717268880266 
0.13532895003111908 0.033384065091782586 0.03351883412266144 0.033126416199932424 0.03326839495594275 0.058469412826642204 
1.4369643916838718e-07 1.5075975465697817e-07 1.3332939116351482e-07 8.14179856216443e-08 7.266107230817465e-08 2.9566258833291172e-08 
2.383914967457039e-08 0.21536571406789692 0.07865031354325944 0.07907631705396055 0.08478797599933907 0.0875955985457888 
0.0958916808096872 0.09976225773296535 0.10321781359483945 0.10274308871318484 0.10089942551052518 0.10248396890698117 
0.10230584774377856 0.10432709995649245 0.10967510636207785 0.10556463229542942 0.10180569722629318 0.06684491776054202 
0.04841567650850201 1.4734389818160106e-07 0.13450928798082307 0.13368804847442892 0.07875561670929425 0.07926789653252461 