    1C
    1UUSER                                                              
    1UDATE              28.april.2026                                   
    1UTIME              18:17:37                                        
    1UHOST                                                              
    1UPGM               CalculiX                                        
    1UVERSION           Version 2.22                             
    1UCOMPILETIME       Mon Aug  5 19:15:25 CEST 2024                    
    1UDIR                                                               
    1UDBN                                                               
    1UMAT    1SOLIDMATERIAL                                             
    1UMAT    2SOLIDMATERIALELEMENTGEOMETRY2D0                           
    1UMAT    3SOLIDMATERIALELEMENTGEOMETRY2D1                           
    2C                          6262                                     1
 -1      3132 0.00000E+00 0.00000E+00-5.00000E-01
 -1      3134 0.00000E+00 0.00000E+00 5.00000E-01
 -1      3135 0.00000E+00 3.00000E+01-5.00000E-01
 -1      3137 0.00000E+00 3.00000E+01 5.00000E-01
 -1      3138 1.00000E+02 0.00000E+00-5.00000E-01
 -1      3140 1.00000E+02 0.00000E+00 5.00000E-01
 -1      3141 1.00000E+02 3.00000E+01-5.00000E-01
 -1      3143 1.00000E+02 3.00000E+01 5.00000E-01
 -1      3144 0.00000E+00 1.00000E+00-5.00000E-01
 -1      3146 0.00000E+00 1.00000E+00 5.00000E-01
 -1      3147 0.00000E+00 2.00000E+00-5.00000E-01
 -1      3149 0.00000E+00 2.00000E+00 5.00000E-01
 -1      3150 0.00000E+00 3.00000E+00-5.00000E-01
 -1      3152 0.00000E+00 3.00000E+00 5.00000E-01
 -1      3153 0.00000E+00 4.00000E+00-5.00000E-01
 -1      3155 0.00000E+00 4.00000E+00 5.00000E-01
 -1      3156 0.00000E+00 5.00000E+00-5.00000E-01
 -1      3158 0.00000E+00 5.00000E+00 5.00000E-01
 -1      3159 0.00000E+00 6.00000E+00-5.00000E-01
 -1      3161 0.00000E+00 6.00000E+00 5.00000E-01
 -1      3162 0.00000E+00 7.00000E+00-5.00000E-01
 -1      3164 0.00000E+00 7.00000E+00 5.00000E-01
 -1      3165 0.00000E+00 8.00000E+00-5.00000E-01
 -1      3167 0.00000E+00 8.00000E+00 5.00000E-01
 -1      3168 0.00000E+00 9.00000E+00-5.00000E-01
 -1      3170 0.00000E+00 9.00000E+00 5.00000E-01
 -1      3171 0.00000E+00 1.00000E+01-5.00000E-01
 -1      3173 0.00000E+00 1.00000E+01 5.00000E-01
 -1      3174 0.00000E+00 1.10000E+01-5.00000E-01
 -1      3176 0.00000E+00 1.10000E+01 5.00000E-01
 -1      3177 0.00000E+00 1.20000E+01-5.00000E-01
 -1      3179 0.00000E+00 1.20000E+01 5.00000E-01
 -1      3180 0.00000E+00 1.30000E+01-5.00000E-01
 -1      3182 0.00000E+00 1.30000E+01 5.00000E-01
 -1      3183 0.00000E+00 1.40000E+01-5.00000E-01
 -1      3185 0.00000E+00 1.40000E+01 5.00000E-01
 -1      3186 0.00000E+00 1.50000E+01-5.00000E-01
 -1      3188 0.00000E+00 1.50000E+01 5.00000E-01
 -1      3189 0.00000E+00 1.60000E+01-5.00000E-01
 -1      3191 0.00000E+00 1.60000E+01 5.00000E-01
 -1      3192 0.00000E+00 1.70000E+01-5.00000E-01
 -1      3194 0.00000E+00 1.70000E+01 5.00000E-01
 -1      3195 0.00000E+00 1.80000E+01-5.00000E-01
 -1      3197 0.00000E+00 1.80000E+01 5.00000E-01
 -1      3198 0.00000E+00 1.90000E+01-5.00000E-01
 -1      3200 0.00000E+00 1.90000E+01 5.00000E-01
 -1      3201 0.00000E+00 2.00000E+01-5.00000E-01
 -1      3203 0.00000E+00 2.00000E+01 5.00000E-01
 -1      3204 0.00000E+00 2.10000E+01-5.00000E-01
 -1      3206 0.00000E+00 2.10000E+01 5.00000E-01
 -1      3207 0.00000E+00 2.20000E+01-5.00000E-01
 -1      3209 0.00000E+00 2.20000E+01 5.00000E-01
 -1      3210 0.00000E+00 2.30000E+01-5.00000E-01
 -1      3212 0.00000E+00 2.30000E+01 5.00000E-01
 -1      3213 0.00000E+00 2.40000E+01-5.00000E-01
 -1      3215 0.00000E+00 2.40000E+01 5.00000E-01
 -1      3216 0.00000E+00 2.50000E+01-5.00000E-01
 -1      3218 0.00000E+00 2.50000E+01 5.00000E-01
 -1      3219 0.00000E+00 2.60000E+01-5.00000E-01
 -1      3221 0.00000E+00 2.60000E+01 5.00000E-01
 -1      3222 0.00000E+00 2.70000E+01-5.00000E-01
 -1      3224 0.00000E+00 2.70000E+01 5.00000E-01
 -1      3225 0.00000E+00 2.80000E+01-5.00000E-01
 -1      3227 0.00000E+00 2.80000E+01 5.00000E-01
 -1      3228 0.00000E+00 2.90000E+01-5.00000E-01
 -1      3230 0.00000E+00 2.90000E+01 5.00000E-01
 -1      3231 1.00000E+00 0.00000E+00-5.00000E-01
 -1      3233 1.00000E+00 0.00000E+00 5.00000E-01
 -1      3234 2.00000E+00 0.00000E+00-5.00000E-01
 -1      3236 2.00000E+00 0.00000E+00 5.00000E-01
 -1      3237 3.00000E+00 0.00000E+00-5.00000E-01
 -1      3239 3.00000E+00 0.00000E+00 5.00000E-01
 -1      3240 4.00000E+00 0.00000E+00-5.00000E-01
 -1      3242 4.00000E+00 0.00000E+00 5.00000E-01
 -1      3243 5.00000E+00 0.00000E+00-5.00000E-01
 -1      3245 5.00000E+00 0.00000E+00 5.00000E-01
 -1      3246 6.00000E+00 0.00000E+00-5.00000E-01
 -1      3248 6.00000E+00 0.00000E+00 5.00000E-01
 -1      3249 7.00000E+00 0.00000E+00-5.00000E-01
 -1      3251 7.00000E+00 0.00000E+00 5.00000E-01
 -1      3252 8.00000E+00 0.00000E+00-5.00000E-01
 -1      3254 8.00000E+00 0.00000E+00 5.00000E-01
 -1      3255 9.00000E+00 0.00000E+00-5.00000E-01
 -1      3257 9.00000E+00 0.00000E+00 5.00000E-01
 -1      3258 1.00000E+01 0.00000E+00-5.00000E-01
 -1      3260 1.00000E+01 0.00000E+00 5.00000E-01
 -1      3261 1.10000E+01 0.00000E+00-5.00000E-01
 -1      3263 1.10000E+01 0.00000E+00 5.00000E-01
 -1      3264 1.20000E+01 0.00000E+00-5.00000E-01
 -1      3266 1.20000E+01 0.00000E+00 5.00000E-01
 -1      3267 1.30000E+01 0.00000E+00-5.00000E-01
 -1      3269 1.30000E+01 0.00000E+00 5.00000E-01
 -1      3270 1.40000E+01 0.00000E+00-5.00000E-01
 -1      3272 1.40000E+01 0.00000E+00 5.00000E-01
 -1      3273 1.50000E+01 0.00000E+00-5.00000E-01
 -1      3275 1.50000E+01 0.00000E+00 5.00000E-01
 -1      3276 1.60000E+01 0.00000E+00-5.00000E-01
 -1      3278 1.60000E+01 0.00000E+00 5.00000E-01
 -1      3279 1.70000E+01 0.00000E+00-5.00000E-01
 -1      3281 1.70000E+01 0.00000E+00 5.00000E-01
 -1      3282 1.80000E+01 0.00000E+00-5.00000E-01
 -1      3284 1.80000E+01 0.00000E+00 5.00000E-01
 -1      3285 1.90000E+01 0.00000E+00-5.00000E-01
 -1      3287 1.90000E+01 0.00000E+00 5.00000E-01
 -1      3288 2.00000E+01 0.00000E+00-5.00000E-01
 -1      3290 2.00000E+01 0.00000E+00 5.00000E-01
 -1      3291 2.10000E+01 0.00000E+00-5.00000E-01
 -1      3293 2.10000E+01 0.00000E+00 5.00000E-01
 -1      3294 2.20000E+01 0.00000E+00-5.00000E-01
 -1      3296 2.20000E+01 0.00000E+00 5.00000E-01
 -1      3297 2.30000E+01 0.00000E+00-5.00000E-01
 -1      3299 2.30000E+01 0.00000E+00 5.00000E-01
 -1      3300 2.40000E+01 0.00000E+00-5.00000E-01
 -1      3302 2.40000E+01 0.00000E+00 5.00000E-01
 -1      3303 2.50000E+01 0.00000E+00-5.00000E-01
 -1      3305 2.50000E+01 0.00000E+00 5.00000E-01
 -1      3306 2.60000E+01 0.00000E+00-5.00000E-01
 -1      3308 2.60000E+01 0.00000E+00 5.00000E-01
 -1      3309 2.70000E+01 0.00000E+00-5.00000E-01
 -1      3311 2.70000E+01 0.00000E+00 5.00000E-01
 -1      3312 2.80000E+01 0.00000E+00-5.00000E-01
 -1      3314 2.80000E+01 0.00000E+00 5.00000E-01
 -1      3315 2.90000E+01 0.00000E+00-5.00000E-01
 -1      3317 2.90000E+01 0.00000E+00 5.00000E-01
 -1      3318 3.00000E+01 0.00000E+00-5.00000E-01
 -1      3320 3.00000E+01 0.00000E+00 5.00000E-01
 -1      3321 3.10000E+01 0.00000E+00-5.00000E-01
 -1      3323 3.10000E+01 0.00000E+00 5.00000E-01
 -1      3324 3.20000E+01 0.00000E+00-5.00000E-01
 -1      3326 3.20000E+01 0.00000E+00 5.00000E-01
 -1      3327 3.30000E+01 0.00000E+00-5.00000E-01
 -1      3329 3.30000E+01 0.00000E+00 5.00000E-01
 -1      3330 3.40000E+01 0.00000E+00-5.00000E-01
 -1      3332 3.40000E+01 0.00000E+00 5.00000E-01
 -1      3333 3.50000E+01 0.00000E+00-5.00000E-01
 -1      3335 3.50000E+01 0.00000E+00 5.00000E-01
 -1      3336 3.60000E+01 0.00000E+00-5.00000E-01
 -1      3338 3.60000E+01 0.00000E+00 5.00000E-01
 -1      3339 3.70000E+01 0.00000E+00-5.00000E-01
 -1      3341 3.70000E+01 0.00000E+00 5.00000E-01
 -1      3342 3.80000E+01 0.00000E+00-5.00000E-01
 -1      3344 3.80000E+01 0.00000E+00 5.00000E-01
 -1      3345 3.90000E+01 0.00000E+00-5.00000E-01
 -1      3347 3.90000E+01 0.00000E+00 5.00000E-01
 -1      3348 4.00000E+01 0.00000E+00-5.00000E-01
 -1      3350 4.00000E+01 0.00000E+00 5.00000E-01
 -1      3351 4.10000E+01 0.00000E+00-5.00000E-01
 -1      3353 4.10000E+01 0.00000E+00 5.00000E-01
 -1      3354 4.20000E+01 0.00000E+00-5.00000E-01
 -1      3356 4.20000E+01 0.00000E+00 5.00000E-01
 -1      3357 4.30000E+01 0.00000E+00-5.00000E-01
 -1      3359 4.30000E+01 0.00000E+00 5.00000E-01
 -1      3360 4.40000E+01 0.00000E+00-5.00000E-01
 -1      3362 4.40000E+01 0.00000E+00 5.00000E-01
 -1      3363 4.50000E+01 0.00000E+00-5.00000E-01
 -1      3365 4.50000E+01 0.00000E+00 5.00000E-01
 -1      3366 4.60000E+01 0.00000E+00-5.00000E-01
 -1      3368 4.60000E+01 0.00000E+00 5.00000E-01
 -1      3369 4.70000E+01 0.00000E+00-5.00000E-01
 -1      3371 4.70000E+01 0.00000E+00 5.00000E-01
 -1      3372 4.80000E+01 0.00000E+00-5.00000E-01
 -1      3374 4.80000E+01 0.00000E+00 5.00000E-01
 -1      3375 4.90000E+01 0.00000E+00-5.00000E-01
 -1      3377 4.90000E+01 0.00000E+00 5.00000E-01
 -1      3378 5.00000E+01 0.00000E+00-5.00000E-01
 -1      3380 5.00000E+01 0.00000E+00 5.00000E-01
 -1      3381 5.10000E+01 0.00000E+00-5.00000E-01
 -1      3383 5.10000E+01 0.00000E+00 5.00000E-01
 -1      3384 5.20000E+01 0.00000E+00-5.00000E-01
 -1      3386 5.20000E+01 0.00000E+00 5.00000E-01
 -1      3387 5.30000E+01 0.00000E+00-5.00000E-01
 -1      3389 5.30000E+01 0.00000E+00 5.00000E-01
 -1      3390 5.40000E+01 0.00000E+00-5.00000E-01
 -1      3392 5.40000E+01 0.00000E+00 5.00000E-01
 -1      3393 5.50000E+01 0.00000E+00-5.00000E-01
 -1      3395 5.50000E+01 0.00000E+00 5.00000E-01
 -1      3396 5.60000E+01 0.00000E+00-5.00000E-01
 -1      3398 5.60000E+01 0.00000E+00 5.00000E-01
 -1      3399 5.70000E+01 0.00000E+00-5.00000E-01
 -1      3401 5.70000E+01 0.00000E+00 5.00000E-01
 -1      3402 5.80000E+01 0.00000E+00-5.00000E-01
 -1      3404 5.80000E+01 0.00000E+00 5.00000E-01
 -1      3405 5.90000E+01 0.00000E+00-5.00000E-01
 -1      3407 5.90000E+01 0.00000E+00 5.00000E-01
 -1      3408 6.00000E+01 0.00000E+00-5.00000E-01
 -1      3410 6.00000E+01 0.00000E+00 5.00000E-01
 -1      3411 6.10000E+01 0.00000E+00-5.00000E-01
 -1      3413 6.10000E+01 0.00000E+00 5.00000E-01
 -1      3414 6.20000E+01 0.00000E+00-5.00000E-01
 -1      3416 6.20000E+01 0.00000E+00 5.00000E-01
 -1      3417 6.30000E+01 0.00000E+00-5.00000E-01
 -1      3419 6.30000E+01 0.00000E+00 5.00000E-01
 -1      3420 6.40000E+01 0.00000E+00-5.00000E-01
 -1      3422 6.40000E+01 0.00000E+00 5.00000E-01
 -1      3423 6.50000E+01 0.00000E+00-5.00000E-01
 -1      3425 6.50000E+01 0.00000E+00 5.00000E-01
 -1      3426 6.60000E+01 0.00000E+00-5.00000E-01
 -1      3428 6.60000E+01 0.00000E+00 5.00000E-01
 -1      3429 6.70000E+01 0.00000E+00-5.00000E-01
 -1      3431 6.70000E+01 0.00000E+00 5.00000E-01
 -1      3432 6.80000E+01 0.00000E+00-5.00000E-01
 -1      3434 6.80000E+01 0.00000E+00 5.00000E-01
 -1      3435 6.90000E+01 0.00000E+00-5.00000E-01
 -1      3437 6.90000E+01 0.00000E+00 5.00000E-01
 -1      3438 7.00000E+01 0.00000E+00-5.00000E-01
 -1      3440 7.00000E+01 0.00000E+00 5.00000E-01
 -1      3441 7.10000E+01 0.00000E+00-5.00000E-01
 -1      3443 7.10000E+01 0.00000E+00 5.00000E-01
 -1      3444 7.20000E+01 0.00000E+00-5.00000E-01
 -1      3446 7.20000E+01 0.00000E+00 5.00000E-01
 -1      3447 7.30000E+01 0.00000E+00-5.00000E-01
 -1      3449 7.30000E+01 0.00000E+00 5.00000E-01
 -1      3450 7.40000E+01 0.00000E+00-5.00000E-01
 -1      3452 7.40000E+01 0.00000E+00 5.00000E-01
 -1      3453 7.50000E+01 0.00000E+00-5.00000E-01
 -1      3455 7.50000E+01 0.00000E+00 5.00000E-01
 -1      3456 7.60000E+01 0.00000E+00-5.00000E-01
 -1      3458 7.60000E+01 0.00000E+00 5.00000E-01
 -1      3459 7.70000E+01 0.00000E+00-5.00000E-01
 -1      3461 7.70000E+01 0.00000E+00 5.00000E-01
 -1      3462 7.80000E+01 0.00000E+00-5.00000E-01
 -1      3464 7.80000E+01 0.00000E+00 5.00000E-01
 -1      3465 7.90000E+01 0.00000E+00-5.00000E-01
 -1      3467 7.90000E+01 0.00000E+00 5.00000E-01
 -1      3468 8.00000E+01 0.00000E+00-5.00000E-01
 -1      3470 8.00000E+01 0.00000E+00 5.00000E-01
 -1      3471 8.10000E+01 0.00000E+00-5.00000E-01
 -1      3473 8.10000E+01 0.00000E+00 5.00000E-01
 -1      3474 8.20000E+01 0.00000E+00-5.00000E-01
 -1      3476 8.20000E+01 0.00000E+00 5.00000E-01
 -1      3477 8.30000E+01 0.00000E+00-5.00000E-01
 -1      3479 8.30000E+01 0.00000E+00 5.00000E-01
 -1      3480 8.40000E+01 0.00000E+00-5.00000E-01
 -1      3482 8.40000E+01 0.00000E+00 5.00000E-01
 -1      3483 8.50000E+01 0.00000E+00-5.00000E-01
 -1      3485 8.50000E+01 0.00000E+00 5.00000E-01
 -1      3486 8.60000E+01 0.00000E+00-5.00000E-01
 -1      3488 8.60000E+01 0.00000E+00 5.00000E-01
 -1      3489 8.70000E+01 0.00000E+00-5.00000E-01
 -1      3491 8.70000E+01 0.00000E+00 5.00000E-01
 -1      3492 8.80000E+01 0.00000E+00-5.00000E-01
 -1      3494 8.80000E+01 0.00000E+00 5.00000E-01
 -1      3495 8.90000E+01 0.00000E+00-5.00000E-01
 -1      3497 8.90000E+01 0.00000E+00 5.00000E-01
 -1      3498 9.00000E+01 0.00000E+00-5.00000E-01
 -1      3500 9.00000E+01 0.00000E+00 5.00000E-01
 -1      3501 9.10000E+01 0.00000E+00-5.00000E-01
 -1      3503 9.10000E+01 0.00000E+00 5.00000E-01
 -1      3504 9.20000E+01 0.00000E+00-5.00000E-01
 -1      3506 9.20000E+01 0.00000E+00 5.00000E-01
 -1      3507 9.30000E+01 0.00000E+00-5.00000E-01
 -1      3509 9.30000E+01 0.00000E+00 5.00000E-01
 -1      3510 9.40000E+01 0.00000E+00-5.00000E-01
 -1      3512 9.40000E+01 0.00000E+00 5.00000E-01
 -1      3513 9.50000E+01 0.00000E+00-5.00000E-01
 -1      3515 9.50000E+01 0.00000E+00 5.00000E-01
 -1      3516 9.60000E+01 0.00000E+00-5.00000E-01
 -1      3518 9.60000E+01 0.00000E+00 5.00000E-01
 -1      3519 9.70000E+01 0.00000E+00-5.00000E-01
 -1      3521 9.70000E+01 0.00000E+00 5.00000E-01
 -1      3522 9.80000E+01 0.00000E+00-5.00000E-01
 -1      3524 9.80000E+01 0.00000E+00 5.00000E-01
 -1      3525 9.90000E+01 0.00000E+00-5.00000E-01
 -1      3527 9.90000E+01 0.00000E+00 5.00000E-01
 -1      3528 1.00000E+02 1.00000E+00-5.00000E-01
 -1      3530 1.00000E+02 1.00000E+00 5.00000E-01
 -1      3531 1.00000E+02 2.00000E+00-5.00000E-01
 -1      3533 1.00000E+02 2.00000E+00 5.00000E-01
 -1      3534 1.00000E+02 3.00000E+00-5.00000E-01
 -1      3536 1.00000E+02 3.00000E+00 5.00000E-01
 -1      3537 1.00000E+02 4.00000E+00-5.00000E-01
 -1      3539 1.00000E+02 4.00000E+00 5.00000E-01
 -1      3540 1.00000E+02 5.00000E+00-5.00000E-01
 -1      3542 1.00000E+02 5.00000E+00 5.00000E-01
 -1      3543 1.00000E+02 6.00000E+00-5.00000E-01
 -1      3545 1.00000E+02 6.00000E+00 5.00000E-01
 -1      3546 1.00000E+02 7.00000E+00-5.00000E-01
 -1      3548 1.00000E+02 7.00000E+00 5.00000E-01
 -1      3549 1.00000E+02 8.00000E+00-5.00000E-01
 -1      3551 1.00000E+02 8.00000E+00 5.00000E-01
 -1      3552 1.00000E+02 9.00000E+00-5.00000E-01
 -1      3554 1.00000E+02 9.00000E+00 5.00000E-01
 -1      3555 1.00000E+02 1.00000E+01-5.00000E-01
 -1      3557 1.00000E+02 1.00000E+01 5.00000E-01
 -1      3558 1.00000E+02 1.10000E+01-5.00000E-01
 -1      3560 1.00000E+02 1.10000E+01 5.00000E-01
 -1      3561 1.00000E+02 1.20000E+01-5.00000E-01
 -1      3563 1.00000E+02 1.20000E+01 5.00000E-01
 -1      3564 1.00000E+02 1.30000E+01-5.00000E-01
 -1      3566 1.00000E+02 1.30000E+01 5.00000E-01
 -1      3567 1.00000E+02 1.40000E+01-5.00000E-01
 -1      3569 1.00000E+02 1.40000E+01 5.00000E-01
 -1      3570 1.00000E+02 1.50000E+01-5.00000E-01
 -1      3572 1.00000E+02 1.50000E+01 5.00000E-01
 -1      3573 1.00000E+02 1.60000E+01-5.00000E-01
 -1      3575 1.00000E+02 1.60000E+01 5.00000E-01
 -1      3576 1.00000E+02 1.70000E+01-5.00000E-01
 -1      3578 1.00000E+02 1.70000E+01 5.00000E-01
 -1      3579 1.00000E+02 1.80000E+01-5.00000E-01
 -1      3581 1.00000E+02 1.80000E+01 5.00000E-01
 -1      3582 1.00000E+02 1.90000E+01-5.00000E-01
 -1      3584 1.00000E+02 1.90000E+01 5.00000E-01
 -1      3585 1.00000E+02 2.00000E+01-5.00000E-01
 -1      3587 1.00000E+02 2.00000E+01 5.00000E-01
 -1      3588 1.00000E+02 2.10000E+01-5.00000E-01
 -1      3590 1.00000E+02 2.10000E+01 5.00000E-01
 -1      3591 1.00000E+02 2.20000E+01-5.00000E-01
 -1      3593 1.00000E+02 2.20000E+01 5.00000E-01
 -1      3594 1.00000E+02 2.30000E+01-5.00000E-01
 -1      3596 1.00000E+02 2.30000E+01 5.00000E-01
 -1      3597 1.00000E+02 2.40000E+01-5.00000E-01
 -1      3599 1.00000E+02 2.40000E+01 5.00000E-01
 -1      3600 1.00000E+02 2.50000E+01-5.00000E-01
 -1      3602 1.00000E+02 2.50000E+01 5.00000E-01
 -1      3603 1.00000E+02 2.60000E+01-5.00000E-01
 -1      3605 1.00000E+02 2.60000E+01 5.00000E-01
 -1      3606 1.00000E+02 2.70000E+01-5.00000E-01
 -1      3608 1.00000E+02 2.70000E+01 5.00000E-01
 -1      3609 1.00000E+02 2.80000E+01-5.00000E-01
 -1      3611 1.00000E+02 2.80000E+01 5.00000E-01
 -1      3612 1.00000E+02 2.90000E+01-5.00000E-01
 -1      3614 1.00000E+02 2.90000E+01 5.00000E-01
 -1      3615 1.00000E+00 3.00000E+01-5.00000E-01
 -1      3617 1.00000E+00 3.00000E+01 5.00000E-01
 -1      3618 2.00000E+00 3.00000E+01-5.00000E-01
 -1      3620 2.00000E+00 3.00000E+01 5.00000E-01
 -1      3621 3.00000E+00 3.00000E+01-5.00000E-01
 -1      3623 3.00000E+00 3.00000E+01 5.00000E-01
 -1      3624 4.00000E+00 3.00000E+01-5.00000E-01
 -1      3626 4.00000E+00 3.00000E+01 5.00000E-01
 -1      3627 5.00000E+00 3.00000E+01-5.00000E-01
 -1      3629 5.00000E+00 3.00000E+01 5.00000E-01
 -1      3630 6.00000E+00 3.00000E+01-5.00000E-01
 -1      3632 6.00000E+00 3.00000E+01 5.00000E-01
 -1      3633 7.00000E+00 3.00000E+01-5.00000E-01
 -1      3635 7.00000E+00 3.00000E+01 5.00000E-01
 -1      3636 8.00000E+00 3.00000E+01-5.00000E-01
 -1      3638 8.00000E+00 3.00000E+01 5.00000E-01
 -1      3639 9.00000E+00 3.00000E+01-5.00000E-01
 -1      3641 9.00000E+00 3.00000E+01 5.00000E-01
 -1      3642 1.00000E+01 3.00000E+01-5.00000E-01
 -1      3644 1.00000E+01 3.00000E+01 5.00000E-01
 -1      3645 1.10000E+01 3.00000E+01-5.00000E-01
 -1      3647 1.10000E+01 3.00000E+01 5.00000E-01
 -1      3648 1.20000E+01 3.00000E+01-5.00000E-01
 -1      3650 1.20000E+01 3.00000E+01 5.00000E-01
 -1      3651 1.30000E+01 3.00000E+01-5.00000E-01
 -1      3653 1.30000E+01 3.00000E+01 5.00000E-01
 -1      3654 1.40000E+01 3.00000E+01-5.00000E-01
 -1      3656 1.40000E+01 3.00000E+01 5.00000E-01
 -1      3657 1.50000E+01 3.00000E+01-5.00000E-01
 -1      3659 1.50000E+01 3.00000E+01 5.00000E-01
 -1      3660 1.60000E+01 3.00000E+01-5.00000E-01
 -1      3662 1.60000E+01 3.00000E+01 5.00000E-01
 -1      3663 1.70000E+01 3.00000E+01-5.00000E-01
 -1      3665 1.70000E+01 3.00000E+01 5.00000E-01
 -1      3666 1.80000E+01 3.00000E+01-5.00000E-01
 -1      3668 1.80000E+01 3.00000E+01 5.00000E-01
 -1      3669 1.90000E+01 3.00000E+01-5.00000E-01
 -1      3671 1.90000E+01 3.00000E+01 5.00000E-01
 -1      3672 2.00000E+01 3.00000E+01-5.00000E-01
 -1      3674 2.00000E+01 3.00000E+01 5.00000E-01
 -1      3675 2.10000E+01 3.00000E+01-5.00000E-01
 -1      3677 2.10000E+01 3.00000E+01 5.00000E-01
 -1      3678 2.20000E+01 3.00000E+01-5.00000E-01
 -1      3680 2.20000E+01 3.00000E+01 5.00000E-01
 -1      3681 2.30000E+01 3.00000E+01-5.00000E-01
 -1      3683 2.30000E+01 3.00000E+01 5.00000E-01
 -1      3684 2.40000E+01 3.00000E+01-5.00000E-01
 -1      3686 2.40000E+01 3.00000E+01 5.00000E-01
 -1      3687 2.50000E+01 3.00000E+01-5.00000E-01
 -1      3689 2.50000E+01 3.00000E+01 5.00000E-01
 -1      3690 2.60000E+01 3.00000E+01-5.00000E-01
 -1      3692 2.60000E+01 3.00000E+01 5.00000E-01
 -1      3693 2.70000E+01 3.00000E+01-5.00000E-01
 -1      3695 2.70000E+01 3.00000E+01 5.00000E-01
 -1      3696 2.80000E+01 3.00000E+01-5.00000E-01
 -1      3698 2.80000E+01 3.00000E+01 5.00000E-01
 -1      3699 2.90000E+01 3.00000E+01-5.00000E-01
 -1      3701 2.90000E+01 3.00000E+01 5.00000E-01
 -1      3702 3.00000E+01 3.00000E+01-5.00000E-01
 -1      3704 3.00000E+01 3.00000E+01 5.00000E-01
 -1      3705 3.10000E+01 3.00000E+01-5.00000E-01
 -1      3707 3.10000E+01 3.00000E+01 5.00000E-01
 -1      3708 3.20000E+01 3.00000E+01-5.00000E-01
 -1      3710 3.20000E+01 3.00000E+01 5.00000E-01
 -1      3711 3.30000E+01 3.00000E+01-5.00000E-01
 -1      3713 3.30000E+01 3.00000E+01 5.00000E-01
 -1      3714 3.40000E+01 3.00000E+01-5.00000E-01
 -1      3716 3.40000E+01 3.00000E+01 5.00000E-01
 -1      3717 3.50000E+01 3.00000E+01-5.00000E-01
 -1      3719 3.50000E+01 3.00000E+01 5.00000E-01
 -1      3720 3.60000E+01 3.00000E+01-5.00000E-01
 -1      3722 3.60000E+01 3.00000E+01 5.00000E-01
 -1      3723 3.70000E+01 3.00000E+01-5.00000E-01
 -1      3725 3.70000E+01 3.00000E+01 5.00000E-01
 -1      3726 3.80000E+01 3.00000E+01-5.00000E-01
 -1      3728 3.80000E+01 3.00000E+01 5.00000E-01
 -1      3729 3.90000E+01 3.00000E+01-5.00000E-01
 -1      3731 3.90000E+01 3.00000E+01 5.00000E-01
 -1      3732 4.00000E+01 3.00000E+01-5.00000E-01
 -1      3734 4.00000E+01 3.00000E+01 5.00000E-01
 -1      3735 4.10000E+01 3.00000E+01-5.00000E-01
 -1      3737 4.10000E+01 3.00000E+01 5.00000E-01
 -1      3738 4.20000E+01 3.00000E+01-5.00000E-01
 -1      3740 4.20000E+01 3.00000E+01 5.00000E-01
 -1      3741 4.30000E+01 3.00000E+01-5.00000E-01
 -1      3743 4.30000E+01 3.00000E+01 5.00000E-01
 -1      3744 4.40000E+01 3.00000E+01-5.00000E-01
 -1      3746 4.40000E+01 3.00000E+01 5.00000E-01
 -1      3747 4.50000E+01 3.00000E+01-5.00000E-01
 -1      3749 4.50000E+01 3.00000E+01 5.00000E-01
 -1      3750 4.60000E+01 3.00000E+01-5.00000E-01
 -1      3752 4.60000E+01 3.00000E+01 5.00000E-01
 -1      3753 4.70000E+01 3.00000E+01-5.00000E-01
 -1      3755 4.70000E+01 3.00000E+01 5.00000E-01
 -1      3756 4.80000E+01 3.00000E+01-5.00000E-01
 -1      3758 4.80000E+01 3.00000E+01 5.00000E-01
 -1      3759 4.90000E+01 3.00000E+01-5.00000E-01
 -1      3761 4.90000E+01 3.00000E+01 5.00000E-01
 -1      3762 5.00000E+01 3.00000E+01-5.00000E-01
 -1      3764 5.00000E+01 3.00000E+01 5.00000E-01
 -1      3765 5.10000E+01 3.00000E+01-5.00000E-01
 -1      3767 5.10000E+01 3.00000E+01 5.00000E-01
 -1      3768 5.20000E+01 3.00000E+01-5.00000E-01
 -1      3770 5.20000E+01 3.00000E+01 5.00000E-01
 -1      3771 5.30000E+01 3.00000E+01-5.00000E-01
 -1      3773 5.30000E+01 3.00000E+01 5.00000E-01
 -1      3774 5.40000E+01 3.00000E+01-5.00000E-01
 -1      3776 5.40000E+01 3.00000E+01 5.00000E-01
 -1      3777 5.50000E+01 3.00000E+01-5.00000E-01
 -1      3779 5.50000E+01 3.00000E+01 5.00000E-01
 -1      3780 5.60000E+01 3.00000E+01-5.00000E-01
 -1      3782 5.60000E+01 3.00000E+01 5.00000E-01
 -1      3783 5.70000E+01 3.00000E+01-5.00000E-01
 -1      3785 5.70000E+01 3.00000E+01 5.00000E-01
 -1      3786 5.80000E+01 3.00000E+01-5.00000E-01
 -1      3788 5.80000E+01 3.00000E+01 5.00000E-01
 -1      3789 5.90000E+01 3.00000E+01-5.00000E-01
 -1      3791 5.90000E+01 3.00000E+01 5.00000E-01
 -1      3792 6.00000E+01 3.00000E+01-5.00000E-01
 -1      3794 6.00000E+01 3.00000E+01 5.00000E-01
 -1      3795 6.10000E+01 3.00000E+01-5.00000E-01
 -1      3797 6.10000E+01 3.00000E+01 5.00000E-01
 -1      3798 6.20000E+01 3.00000E+01-5.00000E-01
 -1      3800 6.20000E+01 3.00000E+01 5.00000E-01
 -1      3801 6.30000E+01 3.00000E+01-5.00000E-01
 -1      3803 6.30000E+01 3.00000E+01 5.00000E-01
 -1      3804 6.40000E+01 3.00000E+01-5.00000E-01
 -1      3806 6.40000E+01 3.00000E+01 5.00000E-01
 -1      3807 6.50000E+01 3.00000E+01-5.00000E-01
 -1      3809 6.50000E+01 3.00000E+01 5.00000E-01
 -1      3810 6.60000E+01 3.00000E+01-5.00000E-01
 -1      3812 6.60000E+01 3.00000E+01 5.00000E-01
 -1      3813 6.70000E+01 3.00000E+01-5.00000E-01
 -1      3815 6.70000E+01 3.00000E+01 5.00000E-01
 -1      3816 6.80000E+01 3.00000E+01-5.00000E-01
 -1      3818 6.80000E+01 3.00000E+01 5.00000E-01
 -1      3819 6.90000E+01 3.00000E+01-5.00000E-01
 -1      3821 6.90000E+01 3.00000E+01 5.00000E-01
 -1      3822 7.00000E+01 3.00000E+01-5.00000E-01
 -1      3824 7.00000E+01 3.00000E+01 5.00000E-01
 -1      3825 7.10000E+01 3.00000E+01-5.00000E-01
 -1      3827 7.10000E+01 3.00000E+01 5.00000E-01
 -1      3828 7.20000E+01 3.00000E+01-5.00000E-01
 -1      3830 7.20000E+01 3.00000E+01 5.00000E-01
 -1      3831 7.30000E+01 3.00000E+01-5.00000E-01
 -1      3833 7.30000E+01 3.00000E+01 5.00000E-01
 -1      3834 7.40000E+01 3.00000E+01-5.00000E-01
 -1      3836 7.40000E+01 3.00000E+01 5.00000E-01
 -1      3837 7.50000E+01 3.00000E+01-5.00000E-01
 -1      3839 7.50000E+01 3.00000E+01 5.00000E-01
 -1      3840 7.60000E+01 3.00000E+01-5.00000E-01
 -1      3842 7.60000E+01 3.00000E+01 5.00000E-01
 -1      3843 7.70000E+01 3.00000E+01-5.00000E-01
 -1      3845 7.70000E+01 3.00000E+01 5.00000E-01
 -1      3846 7.80000E+01 3.00000E+01-5.00000E-01
 -1      3848 7.80000E+01 3.00000E+01 5.00000E-01
 -1      3849 7.90000E+01 3.00000E+01-5.00000E-01
 -1      3851 7.90000E+01 3.00000E+01 5.00000E-01
 -1      3852 8.00000E+01 3.00000E+01-5.00000E-01
 -1      3854 8.00000E+01 3.00000E+01 5.00000E-01
 -1      3855 8.10000E+01 3.00000E+01-5.00000E-01
 -1      3857 8.10000E+01 3.00000E+01 5.00000E-01
 -1      3858 8.20000E+01 3.00000E+01-5.00000E-01
 -1      3860 8.20000E+01 3.00000E+01 5.00000E-01
 -1      3861 8.30000E+01 3.00000E+01-5.00000E-01
 -1      3863 8.30000E+01 3.00000E+01 5.00000E-01
 -1      3864 8.40000E+01 3.00000E+01-5.00000E-01
 -1      3866 8.40000E+01 3.00000E+01 5.00000E-01
 -1      3867 8.50000E+01 3.00000E+01-5.00000E-01
 -1      3869 8.50000E+01 3.00000E+01 5.00000E-01
 -1      3870 8.60000E+01 3.00000E+01-5.00000E-01
 -1      3872 8.60000E+01 3.00000E+01 5.00000E-01
 -1      3873 8.70000E+01 3.00000E+01-5.00000E-01
 -1      3875 8.70000E+01 3.00000E+01 5.00000E-01
 -1      3876 8.80000E+01 3.00000E+01-5.00000E-01
 -1      3878 8.80000E+01 3.00000E+01 5.00000E-01
 -1      3879 8.90000E+01 3.00000E+01-5.00000E-01
 -1      3881 8.90000E+01 3.00000E+01 5.00000E-01
 -1      3882 9.00000E+01 3.00000E+01-5.00000E-01
 -1      3884 9.00000E+01 3.00000E+01 5.00000E-01
 -1      3885 9.10000E+01 3.00000E+01-5.00000E-01
 -1      3887 9.10000E+01 3.00000E+01 5.00000E-01
 -1      3888 9.20000E+01 3.00000E+01-5.00000E-01
 -1      3890 9.20000E+01 3.00000E+01 5.00000E-01
 -1      3891 9.30000E+01 3.00000E+01-5.00000E-01
 -1      3893 9.30000E+01 3.00000E+01 5.00000E-01
 -1      3894 9.40000E+01 3.00000E+01-5.00000E-01
 -1      3896 9.40000E+01 3.00000E+01 5.00000E-01
 -1      3897 9.50000E+01 3.00000E+01-5.00000E-01
 -1      3899 9.50000E+01 3.00000E+01 5.00000E-01
 -1      3900 9.60000E+01 3.00000E+01-5.00000E-01
 -1      3902 9.60000E+01 3.00000E+01 5.00000E-01
 -1      3903 9.70000E+01 3.00000E+01-5.00000E-01
 -1      3905 9.70000E+01 3.00000E+01 5.00000E-01
 -1      3906 9.80000E+01 3.00000E+01-5.00000E-01
 -1      3908 9.80000E+01 3.00000E+01 5.00000E-01
 -1      3909 9.90000E+01 3.00000E+01-5.00000E-01
 -1      3911 9.90000E+01 3.00000E+01 5.00000E-01
 -1      3912 1.60000E+01 1.00000E+00-5.00000E-01
 -1      3914 1.60000E+01 1.00000E+00 5.00000E-01
 -1      3915 2.20000E+01 1.00000E+00-5.00000E-01
 -1      3917 2.20000E+01 1.00000E+00 5.00000E-01
 -1      3918 2.80000E+01 1.00000E+00-5.00000E-01
 -1      3920 2.80000E+01 1.00000E+00 5.00000E-01
 -1      3921 3.40000E+01 1.00000E+00-5.00000E-01
 -1      3923 3.40000E+01 1.00000E+00 5.00000E-01
 -1      3924 4.00000E+01 1.00000E+00-5.00000E-01
 -1      3926 4.00000E+01 1.00000E+00 5.00000E-01
 -1      3927 4.60000E+01 1.00000E+00-5.00000E-01
 -1      3929 4.60000E+01 1.00000E+00 5.00000E-01
 -1      3930 5.20000E+01 1.00000E+00-5.00000E-01
 -1      3932 5.20000E+01 1.00000E+00 5.00000E-01
 -1      3933 5.80000E+01 1.00000E+00-5.00000E-01
 -1      3935 5.80000E+01 1.00000E+00 5.00000E-01
 -1      3936 6.40000E+01 1.00000E+00-5.00000E-01
 -1      3938 6.40000E+01 1.00000E+00 5.00000E-01
 -1      3939 7.00000E+01 1.00000E+00-5.00000E-01
 -1      3941 7.00000E+01 1.00000E+00 5.00000E-01
 -1      3942 7.60000E+01 1.00000E+00-5.00000E-01
 -1      3944 7.60000E+01 1.00000E+00 5.00000E-01
 -1      3945 8.20000E+01 1.00000E+00-5.00000E-01
 -1      3947 8.20000E+01 1.00000E+00 5.00000E-01
 -1      3948 1.50000E+01 2.90000E+01-5.00000E-01
 -1      3950 1.50000E+01 2.90000E+01 5.00000E-01
 -1      3951 2.00000E+01 2.90000E+01-5.00000E-01
 -1      3953 2.00000E+01 2.90000E+01 5.00000E-01
 -1      3954 2.50000E+01 2.90000E+01-5.00000E-01
 -1      3956 2.50000E+01 2.90000E+01 5.00000E-01
 -1      3957 3.00000E+01 2.90000E+01-5.00000E-01
 -1      3959 3.00000E+01 2.90000E+01 5.00000E-01
 -1      3960 3.50000E+01 2.90000E+01-5.00000E-01
 -1      3962 3.50000E+01 2.90000E+01 5.00000E-01
 -1      3963 4.00000E+01 2.90000E+01-5.00000E-01
 -1      3965 4.00000E+01 2.90000E+01 5.00000E-01
 -1      3966 4.50000E+01 2.90000E+01-5.00000E-01
 -1      3968 4.50000E+01 2.90000E+01 5.00000E-01
 -1      3969 5.00000E+01 2.90000E+01-5.00000E-01
 -1      3971 5.00000E+01 2.90000E+01 5.00000E-01
 -1      3972 5.50000E+01 2.90000E+01-5.00000E-01
 -1      3974 5.50000E+01 2.90000E+01 5.00000E-01
 -1      3975 6.00000E+01 2.90000E+01-5.00000E-01
 -1      3977 6.00000E+01 2.90000E+01 5.00000E-01
 -1      3978 6.50000E+01 2.90000E+01-5.00000E-01
 -1      3980 6.50000E+01 2.90000E+01 5.00000E-01
 -1      3981 7.00000E+01 2.90000E+01-5.00000E-01
 -1      3983 7.00000E+01 2.90000E+01 5.00000E-01
 -1      3984 7.50000E+01 2.90000E+01-5.00000E-01
 -1      3986 7.50000E+01 2.90000E+01 5.00000E-01
 -1      3987 8.00000E+01 2.90000E+01-5.00000E-01
 -1      3989 8.00000E+01 2.90000E+01 5.00000E-01
 -1      3990 9.90000E+01 1.30000E+01-5.00000E-01
 -1      3992 9.90000E+01 1.30000E+01 5.00000E-01
 -1      3993 8.50000E+01 2.90000E+01-5.00000E-01
 -1      3995 8.50000E+01 2.90000E+01 5.00000E-01
 -1      3996 1.00000E+00 1.20000E+01-5.00000E-01
 -1      3998 1.00000E+00 1.20000E+01 5.00000E-01
 -1      3999 1.00000E+00 1.80000E+01-5.00000E-01
 -1      4001 1.00000E+00 1.80000E+01 5.00000E-01