# vtk DataFile Version 3.0
Results from optimization
ASCII
DATASET UNSTRUCTURED_GRID

POINTS 3131 float
0.0 0.0 0.0 0.0 30.0 0.0 
100.0 0.0 0.0 100.0 30.0 0.0 
0.0 1.0 0.0 0.0 2.0 0.0 
0.0 3.0 0.0 0.0 4.0 0.0 
0.0 5.0 0.0 0.0 6.0 0.0 
0.0 7.0 0.0 0.0 8.0 0.0 
0.0 9.0 0.0 0.0 10.0 0.0 
0.0 11.0 0.0 0.0 12.0 0.0 
0.0 13.0 0.0 0.0 14.0 0.0 
0.0 15.0 0.0 0.0 16.0 0.0 
0.0 17.0 0.0 0.0 18.0 0.0 
0.0 19.0 0.0 0.0 20.0 0.0 
0.0 21.0 0.0 0.0 22.0 0.0 
0.0 23.0 0.0 0.0 24.0 0.0 
0.0 25.0 0.0 0.0 26.0 0.0 
0.0 27.0 0.0 0.0 28.0 0.0 
0.0 29.0 0.0 1.0 0.0 0.0 
2.0 0.0 0.0 3.0 0.0 0.0 
4.0 0.0 0.0 5.0 0.0 0.0 
6.0 0.0 0.0 7.0 0.0 0.0 
8.0 0.0 0.0 9.0 0.0 0.0 
10.0 0.0 0.0 11.0 0.0 0.0 
12.0 0.0 0.0 13.0 0.0 0.0 
14.0 0.0 0.0 15.0 0.0 0.0 
16.0 0.0 0.0 17.0 0.0 0.0 
18.0 0.0 0.0 19.0 0.0 0.0 
20.0 0.0 0.0 21.0 0.0 0.0 
22.0 0.0 0.0 23.0 0.0 0.0 
24.0 0.0 0.0 25.0 0.0 0.0 
26.0 0.0 0.0 27.0 0.0 0.0 
28.0 0.0 0.0 29.0 0.0 0.0 
30.0 0.0 0.0 31.0 0.0 0.0 
32.0 0.0 0.0 33.0 0.0 0.0 
34.0 0.0 0.0 35.0 0.0 0.0 
36.0 0.0 0.0 37.0 0.0 0.0 
38.0 0.0 0.0 39.0 0.0 0.0 
40.0 0.0 0.0 41.0 0.0 0.0 
42.0 0.0 0.0 43.0 0.0 0.0 
44.0 0.0 0.0 45.0 0.0 0.0 
46.0 0.0 0.0 47.0 0.0 0.0 
48.0 0.0 0.0 49.0 0.0 0.0 
50.0 0.0 0.0 51.0 0.0 0.0 
52.0 0.0 0.0 53.0 0.0 0.0 
54.0 0.0 0.0 55.0 0.0 0.0 
56.0 0.0 0.0 57.0 0.0 0.0 
58.0 0.0 0.0 59.0 0.0 0.0 
60.0 0.0 0.0 61.0 0.0 0.0 
62.0 0.0 0.0 63.0 0.0 0.0 
64.0 0.0 0.0 65.0 0.0 0.0 
66.0 0.0 0.0 67.0 0.0 0.0 
68.0 0.0 0.0 69.0 0.0 0.0 
70.0 0.0 0.0 71.0 0.0 0.0 
72.0 0.0 0.0 73.0 0.0 0.0 
74.0 0.0 0.0 75.0 0.0 0.0 
76.0 0.0 0.0 77.0 0.0 0.0 
78.0 0.0 0.0 79.0 0.0 0.0 
80.0 0.0 0.0 81.0 0.0 0.0 
82.0 0.0 0.0 83.0 0.0 0.0 
84.0 0.0 0.0 85.0 0.0 0.0 
86.0 0.0 0.0 87.0 0.0 0.0 
88.0 0.0 0.0 89.0 0.0 0.0 
90.0 0.0 0.0 91.0 0.0 0.0 
92.0 0.0 0.0 93.0 0.0 0.0 
94.0 0.0 0.0 95.0 0.0 0.0 
96.0 0.0 0.0 97.0 0.0 0.0 
98.0 0.0 0.0 99.0 0.0 0.0 
100.0 1.0 0.0 100.0 2.0 0.0 
100.0 3.0 0.0 100.0 4.0 0.0 
100.0 5.0 0.0 100.0 6.0 0.0 
100.0 7.0 0.0 100.0 8.0 0.0 
100.0 9.0 0.0 100.0 10.0 0.0 
100.0 11.0 0.0 100.0 12.0 0.0 
100.0 13.0 0.0 100.0 14.0 0.0 
100.0 15.0 0.0 100.0 16.0 0.0 
100.0 17.0 0.0 100.0 18.0 0.0 
100.0 19.0 0.0 100.0 20.0 0.0 
100.0 21.0 0.0 100.0 22.0 0.0 
100.0 23.0 0.0 100.0 24.0 0.0 
100.0 25.0 0.0 100.0 26.0 0.0 
100.0 27.0 0.0 100.0 28.0 0.0 
100.0 29.0 0.0 1.0 30.0 0.0 
2.0 30.0 0.0 3.0 30.0 0.0 
4.0 30.0 0.0 5.0 30.0 0.0 
6.0 30.0 0.0 7.0 30.0 0.0 
8.0 30.0 0.0 9.0 30.0 0.0 
10.0 30.0 0.0 11.0 30.0 0.0 
12.0 30.0 0.0 13.0 30.0 0.0 
14.0 30.0 0.0 15.0 30.0 0.0 
16.0 30.0 0.0 17.0 30.0 0.0 
18.0 30.0 0.0 19.0 30.0 0.0 
20.0 30.0 0.0 21.0 30.0 0.0 
22.0 30.0 0.0 23.0 30.0 0.0 
24.0 30.0 0.0 25.0 30.0 0.0 
26.0 30.0 0.0 27.0 30.0 0.0 
28.0 30.0 0.0 29.0 30.0 0.0 
30.0 30.0 0.0 31.0 30.0 0.0 
32.0 30.0 0.0 33.0 30.0 0.0 
34.0 30.0 0.0 35.0 30.0 0.0 
36.0 30.0 0.0 37.0 30.0 0.0 
38.0 30.0 0.0 39.0 30.0 0.0 
40.0 30.0 0.0 41.0 30.0 0.0 
42.0 30.0 0.0 43.0 30.0 0.0 
44.0 30.0 0.0 45.0 30.0 0.0 
46.0 30.0 0.0 47.0 30.0 0.0 
48.0 30.0 0.0 49.0 30.0 0.0 
50.0 30.0 0.0 51.0 30.0 0.0 
52.0 30.0 0.0 53.0 30.0 0.0 
54.0 30.0 0.0 55.0 30.0 0.0 
56.0 30.0 0.0 57.0 30.0 0.0 
58.0 30.0 0.0 59.0 30.0 0.0 
60.0 30.0 0.0 61.0 30.0 0.0 
62.0 30.0 0.0 63.0 30.0 0.0 
64.0 30.0 0.0 65.0 30.0 0.0 
66.0 30.0 0.0 67.0 30.0 0.0 
68.0 30.0 0.0 69.0 30.0 0.0 
70.0 30.0 0.0 71.0 30.0 0.0 
72.0 30.0 0.0 73.0 30.0 0.0 
74.0 30.0 0.0 75.0 30.0 0.0 
76.0 30.0 0.0 77.0 30.0 0.0 
78.0 30.0 0.0 79.0 30.0 0.0 
80.0 30.0 0.0 81.0 30.0 0.0 
82.0 30.0 0.0 83.0 30.0 0.0 
84.0 30.0 0.0 85.0 30.0 0.0 
86.0 30.0 0.0 87.0 30.0 0.0 
88.0 30.0 0.0 89.0 30.0 0.0 
90.0 30.0 0.0 91.0 30.0 0.0 
92.0 30.0 0.0 93.0 30.0 0.0 
94.0 30.0 0.0 95.0 30.0 0.0 
96.0 30.0 0.0 97.0 30.0 0.0 
98.0 30.0 0.0 99.0 30.0 0.0 
16.0 1.0 0.0 22.0 1.0 0.0 
28.0 1.0 0.0 34.0 1.0 0.0 
40.0 1.0 0.0 46.0 1.0 0.0 
52.0 1.0 0.0 58.0 1.0 0.0 
64.0 1.0 0.0 70.0 1.0 0.0 
76.0 1.0 0.0 82.0 1.0 0.0 
15.0 29.0 0.0 20.0 29.0 0.0 
25.0 29.0 0.0 30.0 29.0 0.0 
35.0 29.0 0.0 40.0 29.0 0.0 
45.0 29.0 0.0 50.0 29.0 0.0 
55.0 29.0 0.0 60.0 29.0 0.0 
65.0 29.0 0.0 70.0 29.0 0.0 
75.0 29.0 0.0 80.0 29.0 0.0 
99.0 13.0 0.0 85.0 29.0 0.0 
1.0 12.0 0.0 1.0 18.0 0.0 
99.0 18.0 0.0 88.0 1.0 0.0 
8.99999999994914 0.999999999973743 0.0 99.0 8.0 0.0 
8.0 29.0 0.0 89.0 29.0 0.0 
99.0 22.0 0.0 0.999995859328856 6.99995963616369 0.0 
1.0 23.0 0.0 93.0 1.0 0.0 
93.0 29.0 0.0 4.99897846844128 0.999401131561401 0.0 
99.0 4.0 0.0 99.0 25.0 0.0 
4.0 29.0 0.0 0.998018130894958 3.99456365118287 0.0 
96.0 29.0 0.0 1.0 27.0 0.0 
2.98755098591844 0.99220568858159 0.0 13.0 1.0 0.0 
97.0 1.0 0.0 99.0 27.0 0.0 
0.999999999429266 9.99999999116626 0.0 1.0 16.0 0.0 
20.0 1.0 0.0 26.0 1.0 0.0 
32.0 1.0 0.0 38.0 1.0 0.0 
44.0 1.0 0.0 50.0 1.0 0.0 
56.0 1.0 0.0 62.0 1.0 0.0 
68.0 1.0 0.0 74.0 1.0 0.0 
80.0 1.0 0.0 86.0 1.0 0.0 
99.0 15.0 0.0 10.0 29.0 0.0 
17.0 29.0 0.0 22.0 29.0 0.0 
27.0 29.0 0.0 32.0 29.0 0.0 
37.0 29.0 0.0 42.0 29.0 0.0 
47.0 29.0 0.0 52.0 29.0 0.0 
57.0 29.0 0.0 62.0 29.0 0.0 
67.0 29.0 0.0 72.0 29.0 0.0 
77.0 29.0 0.0 82.0 29.0 0.0 
0.982043965477184 1.98304218642421 0.0 1.0 29.0 0.0 
99.0 1.0 0.0 99.0 29.0 0.0 
0.983223912217958 0.987621281485569 0.0 0.999949380687591 5.99961944502072 0.0 
0.999999970537249 8.99999955168247 0.0 1.0 14.0 0.0 
1.0 20.0 0.0 1.0 22.0 0.0 
1.0 25.0 0.0 6.99998134409618 0.99999175922936 0.0 
10.9999999999491 0.999999999973743 0.0 15.0 1.0 0.0 
18.0 1.0 0.0 24.0 1.0 0.0 
30.0 1.0 0.0 36.0 1.0 0.0 
42.0 1.0 0.0 48.0 1.0 0.0 
54.0 1.0 0.0 60.0 1.0 0.0 
66.0 1.0 0.0 72.0 1.0 0.0 
78.0 1.0 0.0 84.0 1.0 0.0 
90.0 1.0 0.0 92.0 1.0 0.0 
95.0 1.0 0.0 99.0 2.0 0.0 
99.0 5.0 0.0 99.0 6.0 0.0 
99.0 9.0 0.0 99.0 10.0 0.0 
99.0 11.0 0.0 99.0 16.0 0.0 
99.0 19.0 0.0 99.0 20.0 0.0 
99.0 23.0 0.0 2.0 29.0 0.0 
5.0 29.0 0.0 6.0 29.0 0.0 
11.0 29.0 0.0 12.0 29.0 0.0 
13.0 29.0 0.0 18.0 29.0 0.0 
23.0 29.0 0.0 28.0 29.0 0.0 
33.0 29.0 0.0 38.0 29.0 0.0 
43.0 29.0 0.0 48.0 29.0 0.0 
53.0 29.0 0.0 58.0 29.0 0.0 
63.0 29.0 0.0 68.0 29.0 0.0 
73.0 29.0 0.0 78.0 29.0 0.0 
83.0 29.0 0.0 86.0 29.0 0.0 
87.0 29.0 0.0 90.0 29.0 0.0 
91.0 29.0 0.0 94.0 29.0 0.0 
97.0 29.0 0.0 16.0 2.0 0.0 
22.0 28.0 0.0 27.0 28.0 0.0 
52.0 28.0 0.0 57.0 28.0 0.0 
82.0 28.0 0.0 32.0 28.0 0.0 
37.0 28.0 0.0 62.0 28.0 0.0 
67.0 28.0 0.0 42.0 28.0 0.0 
72.0 28.0 0.0 98.0 15.0 0.0 
12.0 28.0 0.0 98.0 19.0 0.0 
89.0 28.0 0.0 98.0 10.0 0.0 
1.99999999531953 9.999999928767 0.0 93.0 2.0 0.0 
2.0 23.0 0.0 98.0 22.0 0.0 
93.0 28.0 0.0 1.99998433821395 6.9998796865685 0.0 
98.0 5.0 0.0 5.0 28.0 0.0 
85.0 28.0 0.0 96.0 28.0 0.0 
1.98413137230705 0.988341966066793 0.0 0.993390117123437 2.98985247870427 0.0 
0.999537928146093 4.99813727245904 0.0 0.999998442801018 7.99998651096591 0.0 
0.999999999636129 10.9999999944437 0.0 1.0 13.0 0.0 
1.0 15.0 0.0 1.0 17.0 0.0 
1.0 19.0 0.0 1.0 21.0 0.0 
1.0 24.0 0.0 1.0 26.0 0.0 
1.0 28.0 0.0 3.99605406296194 0.997383435909015 0.0 
5.99977465143194 0.999865295129002 0.0 7.9999965299808 0.999998450318377 0.0 
9.99999999988557 0.999999999940923 0.0 11.9999999999936 0.999999999996718 0.0 
14.0 1.0 0.0 17.0 1.0 0.0 
19.0 1.0 0.0 21.0 1.0 0.0 
23.0 1.0 0.0 25.0 1.0 0.0 
27.0 1.0 0.0 29.0 1.0 0.0 
31.0 1.0 0.0 33.0 1.0 0.0 
35.0 1.0 0.0 37.0 1.0 0.0 
39.0 1.0 0.0 41.0 1.0 0.0 
43.0 1.0 0.0 45.0 1.0 0.0 
47.0 1.0 0.0 49.0 1.0 0.0 
51.0 1.0 0.0 53.0 1.0 0.0 
55.0 1.0 0.0 57.0 1.0 0.0 
59.0 1.0 0.0 61.0 1.0 0.0 
63.0 1.0 0.0 65.0 1.0 0.0 
67.0 1.0 0.0 69.0 1.0 0.0 
71.0 1.0 0.0 73.0 1.0 0.0 
75.0 1.0 0.0 77.0 1.0 0.0 
79.0 1.0 0.0 81.0 1.0 0.0 
83.0 1.0 0.0 85.0 1.0 0.0 
87.0 1.0 0.0 89.0 1.0 0.0 
91.0 1.0 0.0 94.0 1.0 0.0 
96.0 1.0 0.0 98.0 1.0 0.0 
99.0 3.0 0.0 99.0 7.0 0.0 
99.0 12.0 0.0 99.0 14.0 0.0 
99.0 17.0 0.0 99.0 21.0 0.0 
99.0 24.0 0.0 99.0 26.0 0.0 
99.0 28.0 0.0 3.0 29.0 0.0 
7.0 29.0 0.0 9.0 29.0 0.0 
14.0 29.0 0.0 16.0 29.0 0.0 
19.0 29.0 0.0 21.0 29.0 0.0 
24.0 29.0 0.0 26.0 29.0 0.0 
29.0 29.0 0.0 31.0 29.0 0.0 
34.0 29.0 0.0 36.0 29.0 0.0 
39.0 29.0 0.0 41.0 29.0 0.0 
44.0 29.0 0.0 46.0 29.0 0.0 
49.0 29.0 0.0 51.0 29.0 0.0 
54.0 29.0 0.0 56.0 29.0 0.0 
59.0 29.0 0.0 61.0 29.0 0.0 
64.0 29.0 0.0 66.0 29.0 0.0 
69.0 29.0 0.0 71.0 29.0 0.0 
74.0 29.0 0.0 76.0 29.0 0.0 
79.0 29.0 0.0 81.0 29.0 0.0 
84.0 29.0 0.0 88.0 29.0 0.0 
92.0 29.0 0.0 95.0 29.0 0.0 
98.0 29.0 0.0 98.0 8.0 0.0 
10.0 28.0 0.0 86.0 28.0 0.0 
90.0 28.0 0.0 22.0 2.0 0.0 
28.0 2.0 0.0 34.0 2.0 0.0 
40.0 2.0 0.0 46.0 2.0 0.0 
52.0 2.0 0.0 58.0 2.0 0.0 
64.0 2.0 0.0 70.0 2.0 0.0 
76.0 2.0 0.0 82.0 2.0 0.0 
2.0 16.0 0.0 85.0 27.0 0.0 
88.0 2.0 0.0 11.9999999999928 1.99999999999631 0.0 
89.0 27.0 0.0 8.99999961400676 1.99999982348209 0.0 
5.9997075717904 1.99979502371096 0.0 1.99934767917968 4.99734291783241 0.0 
16.0 28.0 0.0 46.0 28.0 0.0 
76.0 28.0 0.0 2.0 27.0 0.0 
3.99556896721827 1.99618513026716 0.0 97.0 2.0 0.0 
2.0 20.0 0.0 94.0 28.0 0.0 
24.0 28.0 0.0 29.0 28.0 0.0 
34.0 28.0 0.0 39.0 28.0 0.0 
54.0 28.0 0.0 59.0 28.0 0.0 
64.0 28.0 0.0 69.0 28.0 0.0 
98.0 12.0 0.0 7.0 28.0 0.0 
98.0 24.0 0.0 97.0 28.0 0.0 
20.0 2.0 0.0 26.0 2.0 0.0 
32.0 2.0 0.0 38.0 2.0 0.0 
44.0 2.0 0.0 50.0 2.0 0.0 
56.0 2.0 0.0 62.0 2.0 0.0 
68.0 2.0 0.0 74.0 2.0 0.0 
80.0 2.0 0.0 86.0 2.0 0.0 
1.99999981323511 8.99999805583899 0.0 2.0 14.0 0.0 
91.0 2.0 0.0 98.0 20.0 0.0 
18.0 28.0 0.0 48.0 28.0 0.0 
78.0 28.0 0.0 83.0 28.0 0.0 
87.0 28.0 0.0 91.0 28.0 0.0 
98.0 7.0 0.0 14.0 28.0 0.0 
20.0 28.0 0.0 25.0 28.0 0.0 
30.0 28.0 0.0 35.0 28.0 0.0 
40.0 28.0 0.0 44.0 28.0 0.0 
50.0 28.0 0.0 55.0 28.0 0.0 
60.0 28.0 0.0 65.0 28.0 0.0 
70.0 28.0 0.0 74.0 28.0 0.0 
80.0 28.0 0.0 98.0 13.0 0.0 
1.99999999996321 11.9999999994391 0.0 2.0 18.0 0.0 
98.0 17.0 0.0 98.0 18.0 0.0 
8.0 28.0 0.0 98.0 3.0 0.0 
98.0 4.0 0.0 98.0 25.0 0.0 
3.0 28.0 0.0 4.0 28.0 0.0 
1.9971839117747 3.993137435461 0.0 1.98608618048036 1.98526975763388 0.0 
14.0 2.0 0.0 98.0 26.0 0.0 
98.0 27.0 0.0 1.99983949066551 5.99923056007149 0.0 
2.0 22.0 0.0 2.0 25.0 0.0 
7.99999502590895 1.99999772908988 0.0 10.9999999997687 1.99999999988056 0.0 
15.0 2.0 0.0 18.0 2.0 0.0 
[...]
CELL_DATA 3000

SCALARS element_states float
LOOKUP_TABLE default
1 1 1 1 1 1 1 1 1 1 1 1 1 1 1 1 1 1 1 1 1 1 1 1 1 1 1 1 1 1 
1 1 1 1 1 1 1 1 1 1 1 1 1 1 1 1 1 1 1 1 1 1 1 1 1 1 1 1 1 1 
1 1 1 1 1 1 1 1 1 1 1 1 1 1 1 1 1 1 1 1 1 1 1 1 1 1 1 1 1 1 
1 1 1 1 1 1 1 1 1 1 1 1 1 1 1 1 1 1 1 1 1 1 1 1 1 1 1 1 1 1 
1 1 1 1 1 1 1 1 1 1 1 1 1 1 1 1 1 1 1 1 1 1 1 1 1 1 1 1 1 1 
1 1 1 1 1 1 1 1 1 1 1 1 1 1 1 1 1 1 1 1 1 1 1 1 1 1 1 1 1 1 
1 1 1 1 1 1 1 1 1 1 1 1 1 1 1 1 1 1 1 1 1 1 1 1 1 1 1 1 1 1 
1 1 1 1 1 1 1 1 1 1 1 1 1 1 1 1 1 1 1 1 1 1 1 1 1 1 1 1 1 1 
1 1 1 1 1 1 1 1 1 1 1 1 1 1 1 1 1 1 1 1 1 1 1 1 1 1 1 1 1 1 
1 1 1 1 1 1 1 1 1 1 1 1 1 1 1 1 1 1 1 1 1 1 1 1 1 1 1 1 1 1 
1 1 1 1 1 1 1 1 1 1 1 1 1 1 1 1 1 1 1 1 1 1 1 1 1 1 1 1 1 1 
1 1 1 1 1 1 1 1 1 1 1 1 1 1 1 1 1 1 1 1 1 1 1 1 1 1 1 1 1 1 
1 1 1 1 1 1 1 1 1 1 1 1 1 1 1 1 1 1 1 1 1 1 1 1 1 1 1 1 1 1 
1 1 1 1 1 1 1 1 1 1 1 1 1 1 1 1 1 1 1 1 1 1 1 1 1 1 1 1 1 1 
1 1 1 1 1 1 1 1 1 1 1 1 1 1 1 1 1 1 1 1 1 1 1 1 1 1 1 1 1 1 
1 1 1 1 1 1 1 1 1 1 1 1 1 1 1 1 1 1 1 1 1 1 1 1 1 1 1 1 1 1 
1 1 1 1 1 1 1 1 1 1 1 1 1 1 1 1 1 1 1 1 1 1 1 1 1 1 1 1 1 1 
1 1 1 1 1 1 1 1 1 1 1 1 1 1 1 1 1 1 1 1 1 1 1 1 1 1 1 1 1 1 
1 1 1 1 1 1 1 1 1 1 1 1 1 1 1 1 1 1 1 1 1 1 1 1 1 1 1 1 1 1 
1 1 1 1 1 1 1 1 1 1 1 1 1 1 1 1 1 1 1 1 1 1 1 1 1 1 1 1 1 1 
1 1 1 1 1 1 1 1 1 1 1 1 1 1 1 1 1 1 1 1 1 1 1 1 1 1 1 1 1 1 
1 1 1 1 1 1 1 1 1 1 1 1 1 1 1 1 1 1 1 1 1 1 1 1 1 1 1 1 1 1 
1 1 1 1 1 1 1 1 1 1 1 1 1 1 1 1 1 1 1 1 1 1 1 1 1 1 1 1 1 1 
1 1 1 1 1 1 1 1 1 1 1 1 1 1 1 1 1 1 1 1 1 1 1 1 1 1 1 1 1 1 
1 1 1 1 1 1 1 1 1 1 1 1 1 1 1 1 1 1 1 1 1 1 1 1 1 1 1 1 1 1 
1 1 1 1 1 1 1 1 1 1 1 1 1 1 1 1 1 1 1 1 1 1 1 1 1 1 1 1 1 1 
1 1 1 1 1 1 1 1 1 1 1 1 1 1 1 1 1 1 1 1 1 1 1 1 1 1 1 1 1 1 
1 1 1 1 1 1 1 1 1 1 1 1 1 1 1 1 1 1 1 1 1 1 1 1 1 1 1 1 1 1 
1 1 1 1 1 1 1 1 1 1 1 1 1 1 1 1 1 1 1 1 1 1 1 1 1 1 1 1 1 1 
1 1 1 1 1 1 1 1 1 1 1 1 1 1 1 1 1 1 1 1 1 1 1 1 1 1 1 1 1 1 
1 1 1 1 1 1 1 1 1 1 1 1 1 1 1 1 1 1 1 1 1 1 1 1 1 1 1 1 1 1 
1 1 1 1 1 1 1 1 1 1 1 1 1 1 1 1 1 1 1 1 1 1 1 1 1 1 1 1 1 1 
1 1 1 1 1 1 1 1 1 1 1 1 1 1 1 1 1 1 1 1 1 1 1 1 1 1 1 1 1 1 
1 1 1 1 1 1 1 1 1 1 1 1 1 1 1 1 1 1 1 1 1 1 1 1 1 1 1 1 1 1 
1 1 1 1 1 1 1 1 1 1 1 1 1 1 1 1 1 1 1 1 1 1 1 1 1 1 1 1 1 1 
1 1 1 1 1 1 1 1 1 1 1 1 1 1 1 1 1 1 1 1 1 1 1 1 1 1 1 1 1 1 
1 1 1 1 1 1 1 1 1 1 1 1 1 1 1 1 1 1 1 1 1 1 1 1 1 1 1 1 1 1 
1 1 1 1 1 1 1 1 1 1 1 1 1 1 1 1 1 1 1 1 1 1 1 1 1 1 1 1 1 1 
1 1 1 1 1 1 1 1 1 1 1 1 1 1 1 1 1 1 1 1 1 1 1 1 1 1 1 1 1 1 
1 1 1 1 1 1 1 1 1 1 1 1 1 1 1 1 1 1 1 1 1 1 1 1 1 1 1 1 1 1 
1 1 1 1 1 1 1 1 1 1 1 1 1 1 1 1 1 1 1 1 1 1 1 1 1 1 1 1 1 1 
1 1 1 1 1 1 1 1 1 1 1 1 1 1 1 1 1 1 1 1 1 1 1 1 1 1 1 1 1 1 
1 1 1 1 1 1 1 1 1 1 1 1 1 1 1 1 1 1 1 1 1 1 1 1 1 1 1 1 1 1 
1 1 1 1 1 1 1 1 1 1 1 1 1 1 1 1 1 1 1 1 1 1 1 1 1 1 1 1 1 1 
1 1 1 1 1 1 1 1 1 1 1 1 1 1 1 1 1 1 1 1 1 1 1 1 1 1 1 1 1 1 
1 1 1 1 1 1 1 1 1 1 1 1 1 1 1 1 1 1 1 1 1 1 1 1 1 1 1 1 1 1 
1 1 1 1 1 1 1 1 1 1 1 1 1 1 1 1 1 1 1 1 1 1 1 1 1 1 1 1 1 1 
1 1 1 1 1 1 1 1 1 1 1 1 1 1 1 1 1 1 1 1 1 1 1 1 1 1 1 1 1 1 
1 1 1 1 1 1 1 1 1 1 1 1 1 1 1 1 1 1 1 1 1 1 1 1 1 1 1 1 1 1 
1 1 1 1 1 1 1 1 1 1 1 1 1 1 1 1 1 1 1 1 1 1 1 1 1 1 1 1 1 1 
1 1 1 1 1 1 1 1 1 1 1 1 1 1 1 1 1 1 1 1 1 1 1 1 1 1 1 1 1 1 
1 1 1 1 1 1 1 1 1 1 1 1 1 1 1 1 1 1 1 1 1 1 1 1 1 1 1 1 1 1 
1 1 1 1 1 1 1 1 1 1 1 1 1 1 1 1 1 1 1 1 1 1 1 1 1 1 1 1 1 1 
1 1 1 1 1 1 1 1 1 1 1 1 1 1 1 1 1 1 1 1 1 1 1 1 1 1 1 1 1 1 
1 1 1 1 1 1 1 1 1 1 1 1 1 1 1 1 1 1 1 1 1 1 1 1 1 1 1 1 1 1 
1 1 1 1 1 1 1 1 1 1 1 1 1 1 1 1 1 1 1 1 1 1 1 1 1 1 1 1 1 1 
1 1 1 1 1 1 1 1 1 1 1 1 1 1 1 1 1 1 1 1 1 1 1 1 1 1 1 1 1 1 
1 1 1 1 1 1 1 1 1 1 1 1 1 1 1 1 1 1 1 1 1 1 1 1 1 1 1 1 1 1 
1 1 1 1 1 1 1 1 1 1 1 1 1 1 1 1 1 1 1 1 1 1 1 1 1 1 1 1 1 1 
1 1 1 1 1 1 1 1 1 1 1 1 1 1 1 1 1 1 1 1 1 1 1 1 1 1 1 1 1 1 
1 1 1 1 1 1 1 1 1 1 1 1 1 1 1 1 1 1 1 1 1 1 1 1 1 1 1 1 1 1 
1 1 1 1 1 1 1 1 1 1 1 1 1 1 1 1 1 1 1 1 1 1 1 1 1 1 1 1 1 1 
1 1 1 1 1 1 1 1 1 1 1 1 1 1 1 1 1 1 1 1 1 1 1 1 1 1 1 1 1 1 
1 1 1 1 1 1 1 1 1 1 1 1 1 1 1 1 1 1 1 1 1 1 1 1 1 1 1 1 1 1 
1 1 1 1 1 1 1 1 1 1 1 1 1 1 1 1 1 1 1 1 1 1 1 1 1 1 1 1 1 1 
1 1 1 1 1 1 1 1 1 1 1 1 1 1 1 1 1 1 1 1 1 1 1 1 1 1 1 1 1 1 
1 1 1 1 1 1 1 1 1 1 1 1 1 1 1 1 1 1 1 1 1 1 1 1 1 1 1 1 1 1 
1 1 1 1 1 1 1 1 1 1 1 1 1 1 1 1 1 1 1 1 1 1 1 1 1 1 1 1 1 1 
1 1 1 1 1 1 1 1 1 1 1 1 1 1 1 1 1 1 1 1 1 1 1 1 1 1 1 1 1 1 
1 1 1 1 1 1 1 1 1 1 1 1 1 1 1 1 1 1 1 1 1 1 1 1 1 1 1 1 1 1 
1 1 1 1 1 1 1 1 1 1 1 1 1 1 1 1 1 1 1 1 1 1 1 1 1 1 1 1 1 1 
1 1 1 1 1 1 1 1 1 1 1 1 1 1 1 1 1 1 1 1 1 1 1 1 1 1 1 1 1 1 
1 1 1 1 1 1 1 1 1 1 1 1 1 1 1 1 1 1 1 1 1 1 1 1 1 1 1 1 1 1 
1 1 1 1 1 1 1 1 1 1 1 1 1 1 1 1 1 1 1 1 1 1 1 1 1 1 1 1 1 1 
1 1 1 1 1 1 1 1 1 1 1 1 1 1 1 1 1 1 1 1 1 1 1 1 1 1 1 1 1 1 
1 1 1 1 1 1 1 1 1 1 1 1 1 1 1 1 1 1 1 1 1 1 1 1 1 1 1 1 1 1 
1 1 1 1 1 1 1 1 1 1 1 1 1 1 1 1 1 1 1 1 1 1 1 1 1 1 1 1 1 1 
1 1 1 1 1 1 1 1 1 1 1 1 1 1 1 1 1 1 1 1 1 1 1 1 1 1 1 1 1 1 
1 1 1 1 1 1 1 1 1 1 1 1 1 1 1 1 1 1 1 1 1 1 1 1 1 1 1 1 1 1 
1 1 1 1 1 1 1 1 1 1 1 1 1 1 1 1 1 1 1 1 1 1 1 1 1 1 1 1 1 1 
1 1 1 1 1 1 1 1 1 1 1 1 1 1 1 1 1 1 1 1 1 1 1 1 1 1 1 1 1 1 
1 1 1 1 1 1 1 1 1 1 1 1 1 1 1 1 1 1 1 1 1 1 1 1 1 1 1 1 1 1 
1 1 1 1 1 1 1 1 1 1 1 1 1 1 1 1 1 1 1 1 1 1 1 1 1 1 1 1 1 1 
1 1 1 1 1 1 1 1 1 1 1 1 1 1 1 1 1 1 1 1 1 1 1 1 1 1 1 1 1 1 
1 1 1 1 1 1 1 1 1 1 1 1 1 1 1 1 1 1 1 1 1 1 1 1 1 1 1 1 1 1 
1 1 1 1 1 1 1 1 1 1 1 1 1 1 1 1 1 1 1 1 1 1 1 1 1 1 1 1 1 1 
1 1 1 1 1 1 1 1 1 1 1 1 1 1 1 1 1 1 1 1 1 1 1 1 1 1 1 1 1 1 
1 1 1 1 1 1 1 1 1 1 1 1 1 1 1 1 1 1 1 1 1 1 1 1 1 1 1 1 1 1 
1 1 1 1 1 1 1 1 1 1 1 1 1 1 1 1 1 1 1 1 1 1 1 1 1 1 1 1 1 1 
1 1 1 1 1 1 1 1 1 1 1 1 1 1 1 1 1 1 1 1 1 1 1 1 1 1 1 1 1 1 
1 1 1 1 1 1 1 1 1 1 1 1 1 1 1 1 1 1 1 1 1 1 1 1 1 1 1 1 1 1 
1 1 1 1 1 1 1 1 1 1 1 1 1 1 1 1 1 1 1 1 1 1 1 1 1 1 1 1 1 1 
1 1 1 1 1 1 1 1 1 1 1 1 1 1 1 1 1 1 1 1 1 1 1 1 1 1 1 1 1 1 
1 1 1 1 1 1 1 1 1 1 1 1 1 1 1 1 1 1 1 1 1 1 1 1 1 1 1 1 1 1 
1 1 1 1 1 1 1 1 1 1 1 1 1 1 1 1 1 1 1 1 1 1 1 1 1 1 1 1 1 1 
1 1 1 1 1 1 1 1 1 1 1 1 1 1 1 1 1 1 1 1 1 1 1 1 1 1 1 1 1 1 
1 1 1 1 1 1 1 1 1 1 1 1 1 1 1 1 1 1 1 1 1 1 1 1 1 1 1 1 1 1 
1 1 1 1 1 1 1 1 1 1 1 1 1 1 1 1 1 1 1 1 1 1 1 1 1 1 1 1 1 1 
1 1 1 1 1 1 1 1 1 1 1 1 1 1 1 1 1 1 1 1 1 1 1 1 1 1 1 1 1 1 
1 1 1 1 1 1 1 1 1 1 1 1 1 1 1 1 1 1 1 1 1 1 1 1 1 1 1 1 1 1 


SCALARS sensitivity_number float
LOOKUP_TABLE default
0.007991401849127833 0.006751963387445012 0.005673020882149679 0.0067025712412492385 0.005585554700966124 0.002818861160865502 
0.002264817491836186 0.00044667655034161274 0.0004371903757665083 0.00031354447217209246 0.00030816196675618004 0.00030295887146698216 
0.00017767919191884234 9.296225839758709e-06 5.449948615550559e-06 1.6004558531240095e-05 1.0369883235507703e-05 0.0027657379653395664 
0.002181911771076569 0.0022240814498524506 0.0023036639820575946 0.0017093793896695677 0.0017412784533674683 0.001296434708773218 
0.0012474351870744485 0.0012721640419187663 0.0009280176637682067 0.00019556835162450438 0.0010303619611177486 0.00020516558714464854 
0.001007868319501862 0.0009638430321516745 0.0009857012442029721 0.00045644421170410707 0.0007282057777607393 0.0002119445769003989 
0.0005066306348284369 0.000427966395861318 0.0003425013450505789 0.00031912108811083613 0.00035244118527394207 0.0002423091150187103 
0.0003473902141620156 0.00022164566627702446 0.00022417434971287018 0.0002352361594596842 0.00023983824764757574 0.00023748355466818714 
0.00024490040782235357 0.00021922697272129486 0.00021690814961946764 0.0001880824565278373 0.0001767798029174556 0.00017637733312240593 
0.00021616003009744156 0.00017570459699478078 0.008470007128248488 0.008006482499590909 0.00571153709923843 0.0067963328279547685 
0.004747405501053712 0.0038940144718270877 0.003143132387133367 0.0024871533859724157 0.0019200438890017693 0.0014369716300195441 
0.0007079392479748408 0.001034007248991648 0.0004561845438907453 0.00027672804995134337 0.0001293026341171574 0.0001680871070621294 
0.00026028056433208675 0.00015996329089596408 0.00043125031316246253 0.0006749742675884782 0.0009952974760206361 0.0013991158696744113 
0.0018991800387669659 0.002520661159226131 0.0033174402913932876 0.006191472594732962 0.004422578168934746 0.010495165327926884 
0.02630542502645446 0.015692928701246996 0.008537860155199892 0.00839678811424606 0.008475134425033264 0.008302602262375877 
0.008194076739572639 0.007938438982867238 0.008072141129781501 0.0077947221960898445 0.007642735655613277 0.007320575307764092 
0.0074841619423297685 0.007153419978498815 0.00698398897055208 0.006813417191279141 0.006642678254286952 0.006472589661715772 
0.0061369070934002455 0.006303820812757858 0.0058101946111507995 0.005972262056213057 0.005650923307129903 0.005494591036640607 
0.005191019873199167 0.005341279286477692 0.004899604667831866 0.005043806693857005 0.004758357489327998 0.004619995135891334 
0.004351602988168461 0.004484438310244228 0.0040937594185433005 0.004221404668505236 0.003968586884301207 0.0038458110242218396 
0.0036071719443952393 0.003725360945689585 0.003377346838944563 0.00349118484937129 0.003265610994642442 0.003155935951898534 
0.002942628751126185 0.003048285391534558 0.002737195010594988 0.0028389392200132433 0.0026373781143533112 0.0025394737642519985 
0.002349362923387825 0.002443471474832368 0.002166810697906828 0.002257143364177425 0.0020783650692584887 0.001991809827526742 
0.001824394461919809 0.0019071502372529075 0.0016646375905010834 0.0017435526153631033 0.0015876643153578931 0.0015126505424284274 
0.0013685843401559045 0.0014396164582549382 0.0012326287490809465 0.0012995793335445168 0.00116776240820661 0.0011050128638976514 
0.0009860044266914929 0.0010444144373157294 0.000875907627231616 0.0009298216591190076 0.0008243055619993379 0.0007750608443619245 
0.000683836362155217 0.0007282211133513291 0.0006026473236378006 0.0006419595460630195 0.0005659613409400282 0.0005319702676313809 
0.00047240084393127175 0.0005007525720175543 0.0004247745148119387 0.0004470277080084244 0.0004058234896219416 0.00039041511936845465 
0.00037163965065358835 0.0003788730127091269 0.00037280059350932774 0.0003693285724419527 0.00038327959261732743 0.00040252161570479854 
0.0004331000527645099 0.00047876052963372127 0.0005453648641235101 0.0006408788926986154 0.0007823131581208903 0.0013710868734818065 
0.000978353472085397 0.002532050270085458 0.019807992273071822 0.012489094613721176 0.019816370972017876 0.005661032721694964 
0.009415624153267856 0.003762056307203204 0.0026683750169554017 0.0014889720752321346 0.0019672712999262145 0.001146298752890753 
0.0008916516323903656 0.000697069589153359 0.0004252127130589036 0.0005452992827635954 0.0003293505724968488 0.0002525278171694405 
0.0001910090216932993 0.00010334363969226527 0.00014200290487005577 7.32856062693593e-05 5.037013996341802e-05 2.108384957915253e-05 
3.333951634313805e-05 1.261186832721773e-05 3.5952801413291057e-06 7.040000046623125e-06 1.6268940515708184e-06 6.17578151848087e-07 
1.8092930787262154e-07 4.006749334870694e-08 1.8132578768522538e-08 0.027133835756386223 0.009251202477316776 0.012220839174677731 
0.008373880798911036 0.00785012518844434 0.007300045219622049 0.007531545834779351 0.007120032620288598 0.006968149930154873 
0.00683291049179448 0.006707210017768319 0.006586865447855349 0.006352758491312178 0.006469256518481609 0.006236364112143622 
0.006119471338471451 0.0060017468529460745 0.005763314087660149 0.005883037614304148 0.0056426289460180116 0.005521091370346338 
0.005398845662380648 0.005152907734334623 0.00527605831629655 0.005029576198448528 0.004906245443011594 0.004783092331076804 
0.004537986784029553 0.004660285980258883 0.004416344052140944 0.004295496609919919 0.004175571790480713 0.003938943546608946 
0.004056685787547584 0.003822439621999078 0.003707258714498868 0.003593475722747139 0.0033703612037008644 0.0034811571070763065 
0.0032611389062698454 0.0031535340236792633 0.0030475845960247594 0.002840775221551853 0.0029433225102014145 0.002739964879017581 
0.0026409097350934938 0.0025436245029095833 0.0023544034063983236 0.00244811987679547 0.0022624802055537982 0.0021723516749675574 
0.002084017384851301 0.0019127148788513914 0.001997473665698992 0.001829732805155294 0.0017485168265159912 0.0016690538805091523 
0.0015153253742962954 0.0015913292933696886 0.001441023120794077 0.0013684012615677646 0.0012974371863100178 0.0011603856272571207 
0.0012281069191136832 0.0010942480740091264 0.001029669916542211 0.0009666277708872868 0.0008450741055003876 0.0009051013937178851 
0.0007865349612777786 0.0007294805065592452 0.0006739167279224994 0.0005673470336953872 0.0006198615505011513 0.0005164218948639856 
0.00046715369251986057 0.0004196306906949656 0.00033028338150164685 0.00037396312894530826 0.00028874495202501623 0.0002495195052019919 
0.0002127918125587104 0.0001475863323442661 0.00017875222064638328 0.00011946216963418653 9.451494673698375e-05 5.442906316635674e-05 
7.283057503930868e-05 3.9249918331582046e-05 2.7141940841138575e-05 1.107345289624188e-05 1.7860266793043026e-05 3.352965071009891e-06 
6.382619596123203e-06 1.554332892236952e-06 6.016007687516619e-07 3.988755209494038e-08 1.7871882033290008e-07 0.005862357696362809 
0.005977879857661223 0.004824934213216921 0.004247217954133381 0.003686335182665759 0.003154600500101209 0.0025652417893903597 
0.002659488263624477 0.001791791353313486 0.001420246191959906 0.00108855435790409 0.0007943423222775689 0.0004887621685909225 
0.0005360089290199836 0.0004077146585725127 7.960440149990074e-05 0.00010894619681778058 0.0069972543838855575 0.00773064067272755 
0.007818412455972267 0.0029439029322315255 0.004081040707939201 5.84463932666506e-06 0.008156406043139483 0.009078047345021548 
0.005699305226003484 0.0047360240747253025 0.006827503060523947 0.006673460079171902 1.3913570704574353e-06 0.00574765649508289 
0.005633201285263453 0.002472635215083449 0.002381681633053261 0.00044309251452788126 0.0003990761447279428 0.006786007221091479 
0.0031340009001947647 0.003883767132198739 0.0014308961456415902 0.0019560422780628708 0.007630515669142351 0.007518502436715754 
0.00697812657008842 0.006359705655521792 0.0065171807585156505 0.00035768545494596155 0.0004223277334224642 0.00038405858953353874 
0.01276885227105693 0.005927722933174434 0.0022024111068235635 0.001685961257757546 0.0008174957190503302 0.0010322337210848514 
0.0006492521232744914 0.0005153870456841901 0.00019236465437133386 0.00014603541845746476 5.675174937511694e-05 1.6860818577886672e-05 
1.0266071432510566e-05 0.01688383344054955 0.011154487971167854 0.007619713471520152 0.007259051181744601 0.006341164729823085 
0.006475365180063261 0.006215513267593516 0.006095131589225356 0.005057180999126511 0.004941106376276144 0.004477137593053344 
0.004361895544799687 0.003907765805377087 0.0037965003670408395 0.0033632196789143646 0.0032581943473305934 0.002852830907913167 
0.002755358179999393 0.0019519624617667516 0.0018710426335328257 0.0015639681150828113 0.0014913003265771712 0.0012165930475495383 
0.001151814379269762 0.000907680873967425 0.0008502968584081655 0.0006350129839523958 0.0005847736816543894 0.00020766191168093944 
0.00012078010172275745 9.729914256396208e-05 4.407216757173828e-05 3.187959255907393e-05 1.3575428639813125e-06 0.006201930754547559 
0.005173043989219447 0.004592814542476861 0.0020345555824133254 0.0016382640845253732 0.00024167800094407406 0.004020041382237607 
0.0034696251226534907 0.0012829111630914786 0.0009665071566393307 0.002951882353856086 0.0006866973926960457 0.0002497607153122057 
0.005449738557614026 0.005582914249406427 5.8968448996771934e-05 0.00102876332197917 0.0004762515611703692 0.0026091998934542377 
2.6286687838127742e-05 1.4770108810369358e-05 0.0024791630912393515 0.0001470739125511808 2.905932436060974e-06 6.174975869008798e-06 
0.0019130693688854258 0.0007035093237258204 0.00027411485424004393 0.000452608063523183 0.00012935227185832663 0.00016663988716592617 
0.00016202455597437608 0.0002651401333896762 0.0006896680157311284 0.00044010721569023517 0.0010186810566132122 0.0014356807651640857 
0.00345446640265022 0.006454054336269713 0.004627299586782135 0.010183928262219158 0.007893611230743969 0.007395753319064362 
0.00726373042900039 0.007124013963751335 0.006044611489811352 0.005733707201358866 0.0058883702402743425 0.005430582995630344 
0.005581013094856176 0.005282629463860975 0.005137296118266501 0.004854790760131327 0.004994669513424586 0.004583269932991722 
0.004717664857226526 0.004451564017756999 0.004322490886250509 0.004071978054689171 0.0041959856054139865 0.0038311685206960026 
0.003950396262765379 0.0037142255311460827 0.003599501109416589 0.0033764659552149756 0.0034869335437599427 0.003161627836100852 
0.0032680462745195535 0.003057168896721011 0.0029546326235936195 0.002755203926848606 0.0028539869896701308 0.002563135185006581 
0.002658259943531953 0.0024698131512724906 0.0023782809892568613 0.0022005483356382777 0.0022885283549694073 0.0020298894566653904 
0.002114336043899399 0.0019472087180624643 0.0018662963185275153 0.0017097974702003779 0.0017871569455605422 0.0015604558941985387 
0.0016342268040586748 0.001488497905032589 0.001418368204798691 0.0012836647827668504 0.001350083990559949 0.0011565089329127205 
0.0012191319275062843 0.0010958213323410083 0.001037096356220763 0.0009256529714691291 0.00098036328746266 0.0008224321793141265 
0.0008729979487052164 0.0007739908323259569 0.0007277103926518721 0.000641784259309554 0.0006836285469515822 0.0005649720480687383 
0.0006022179630723914 0.0005300916149466571 0.0004976257612731448 0.0004401660410340046 0.00046762940298898724 0.0003931605559364121 
0.00041531172937277997 0.0003738324935506741 0.00035748407387534414 0.00033463067786027696 0.0003443234083784892 0.00032731179857365956 
0.0003287866452316575 0.000330920308702593 0.00034059424797952385 0.0005532602369273576 0.0009650286082485187 0.0006685750815598167 
0.002382118798888647 0.001311976603770826 0.000320535558815551 3.929920994527511e-05 3.0393177548800995e-06 1.5003169294606825e-07 
5.269891860226875e-07 0.0066232072894229195 0.006792753991389159 0.005518646397404662 0.0054038056921377085 0.005288604090074328 
0.0047087920917741125 0.004133227868389383 0.00357735224664991 0.003052483498701939 0.0022923910528629006 0.0022047706592114003 
0.002118824836661865 0.0017142014972689314 0.0013507891622552897 0.0010267920776466967 0.0007398095644353419 0.00035680699333818974 
0.0003163966707421125 0.00027797314205669685 0.00017607813336631878 7.669249149236981e-05 2.219734013148808e-05 5.219781855209438e-07 
0.005729729338782199 0.005896257885909221 0.0001248674255211606 5.506640860191454e-05 0.00017270497997933396 0.00014746677918358236 
0.00015245764422678725 0.00023846862413843338 0.00022991855299567325 6.945956039201412e-05 8.271062305266714e-05 6.851554380208804e-05 
0.006486323285878857 0.009319752618534979 0.0016574077693435254 0.0010763005555333301 0.00045863536920932884 0.006328901516453222 
0.00662891833637949 1.4814297969495538e-06 3.2795716898898094e-06 0.00024883117087468184 0.0014235417642104768 7.105021195196839e-05 
0.004880071978217059 0.0020523427268869274 0.0003586719769218473 0.00017209312646033697 0.00019869188492447606 0.00010433022846137995 
8.586626619492984e-05 4.261785386895871e-05 0.0009800691386769053 0.0011709163329486378 0.005326043777003435 0.0041565123468071665 
0.0036549656095200534 0.003171995466086613 0.002715445414920235 0.0023729175546437155 0.0015461906390888906 0.0012274397059949432 
0.0009432744611137067 0.0006922276897188957 0.0005146651642535852 0.00037531197202764124 0.00028215904491794944 0.00046608503061703536 
9.393199296517656e-05 0.00012198401612703272 0.0015857833506490034 0.0017152413604954516 6.405257890895522e-06 1.1043838576221193e-05 
0.007556702348281622 0.00832692135009327 0.004715400593682672 0.005567795875627009 3.3307307378214248e-06 0.0031203950536159114 
0.003867123374300973 0.0020822502290893993 0.0015209258917644299 0.0062937064366424865 0.006394465386181137 0.005949741983553496 