    1C
    1UModel: examples/beso from FCStd + Gmsh volume mesh                
    1UUSER                                                              
    1UDATE              10.may.2026                                     
    1UTIME              03:46:59                                        
    1UHOST                                                              
    1UPGM               CalculiX                                        
    1UVERSION           Version 2.22                             
    1UCOMPILETIME       Mon Aug  5 19:15:25 CEST 2024                    
    1UDIR                                                               
    1UDBN                                                               
    1UMAT    1MATERIAL-1                                                
    2C                          1372                                     1
 -1         1-2.98655E+03 2.36971E+04 1.20000E+04
 -1         2-2.98655E+03 2.36971E+04-1.40000E+04
 -1         3-2.19702E+04-9.18310E+03-1.40000E+04
 -1         4-2.19702E+04-9.18310E+03 1.20000E+04
 -1         5 2.98655E+03 2.36971E+04-1.40000E+04
 -1         6 2.98655E+03 2.36971E+04 1.20000E+04
 -1         7-1.89379E+04-1.44352E+04 1.20000E+04
 -1         8-1.89379E+04-1.44352E+04-1.40000E+04
 -1         9 1.89379E+04-1.44352E+04 1.20000E+04
 -1        10 2.19702E+04-9.18310E+03 1.20000E+04
 -1        11 3.25000E+03 0.00000E+00 1.20000E+04
 -1        12 1.89379E+04-1.44352E+04-1.40000E+04
 -1        13 2.19702E+04-9.18310E+03-1.40000E+04
 -1        14 3.25000E+03 0.00000E+00 8.80000E+04
 -1        15-2.98655E+03 2.36971E+04 9.11111E+03
 -1        16-2.98655E+03 2.36971E+04 6.22222E+03
 -1        17-2.98655E+03 2.36971E+04 3.33333E+03
 -1        18-2.98655E+03 2.36971E+04 4.44444E+02
 -1        19-2.98655E+03 2.36971E+04-2.44444E+03
 -1        20-2.98655E+03 2.36971E+04-5.33333E+03
 -1        21-2.98655E+03 2.36971E+04-8.22222E+03
 -1        22-2.98655E+03 2.36971E+04-1.11111E+04
 -1        23-7.07922E+03 1.66085E+04-1.40000E+04
 -1        24-1.03413E+04 1.09585E+04-1.40000E+04
 -1        25-1.45032E+04 3.74990E+03-1.40000E+04
 -1        26-1.78154E+04-1.98678E+03-1.40000E+04
 -1        27-2.02215E+04-6.15424E+03-1.40000E+04
 -1        28-2.19702E+04-9.18310E+03 9.11111E+03
 -1        29-2.19702E+04-9.18310E+03 6.22222E+03
 -1        30-2.19702E+04-9.18310E+03 3.33333E+03
 -1        31-2.19702E+04-9.18310E+03 4.44444E+02
 -1        32-2.19702E+04-9.18310E+03-2.44444E+03
 -1        33-2.19702E+04-9.18310E+03-5.33333E+03
 -1        34-2.19702E+04-9.18310E+03-8.22222E+03
 -1        35-2.19702E+04-9.18310E+03-1.11111E+04
 -1        36-7.07922E+03 1.66085E+04 1.20000E+04
 -1        37-1.03413E+04 1.09585E+04 1.20000E+04
 -1        38-1.45032E+04 3.74990E+03 1.20000E+04
 -1        39-1.78154E+04-1.98678E+03 1.20000E+04
 -1        40-2.02215E+04-6.15424E+03 1.20000E+04
 -1        41-2.96656E-12 2.28969E+04-1.40000E+04
 -1        42 2.98655E+03 2.36971E+04 9.11111E+03
 -1        43 2.98655E+03 2.36971E+04 6.22222E+03
 -1        44 2.98655E+03 2.36971E+04 3.33333E+03
 -1        45 2.98655E+03 2.36971E+04 4.44444E+02
 -1        46 2.98655E+03 2.36971E+04-2.44444E+03
 -1        47 2.98655E+03 2.36971E+04-5.33333E+03
 -1        48 2.98655E+03 2.36971E+04-8.22222E+03
 -1        49 2.98655E+03 2.36971E+04-1.11111E+04
 -1        50-2.96656E-12 2.28969E+04 1.20000E+04
 -1        51-1.89379E+04-1.44352E+04 9.11111E+03
 -1        52-1.89379E+04-1.44352E+04 6.22222E+03
 -1        53-1.89379E+04-1.44352E+04 3.33333E+03
 -1        54-1.89379E+04-1.44352E+04 4.44444E+02
 -1        55-1.89379E+04-1.44352E+04-2.44444E+03
 -1        56-1.89379E+04-1.44352E+04-5.33333E+03
 -1        57-1.89379E+04-1.44352E+04-8.22222E+03
 -1        58-1.89379E+04-1.44352E+04-1.11111E+04
 -1        59-1.97504E+04-1.14029E+04-1.40000E+04
 -1        60-1.97504E+04-1.14029E+04 1.20000E+04
 -1        61-1.06955E+04-1.44352E+04 1.20000E+04
 -1        62-4.14373E+03-1.44352E+04 1.20000E+04
 -1        63 4.14373E+03-1.44352E+04 1.20000E+04
 -1        64 1.06955E+04-1.44352E+04 1.20000E+04
 -1        65 1.54649E+04-1.44352E+04 1.20000E+04
 -1        66 1.97504E+04-1.14029E+04 1.20000E+04
 -1        67 1.78154E+04-1.98678E+03 1.20000E+04
 -1        68 1.45032E+04 3.74990E+03 1.20000E+04
 -1        69 1.03413E+04 1.09585E+04 1.20000E+04
 -1        70 7.07922E+03 1.66085E+04 1.20000E+04
 -1        71 4.70913E+03 2.07136E+04 1.20000E+04
 -1        72 2.81458E+03 1.62500E+03 1.20000E+04
 -1        73 1.62500E+03 2.81458E+03 1.20000E+04
 -1        74-1.63988E-11 3.25000E+03 1.20000E+04
 -1        75-1.62500E+03 2.81458E+03 1.20000E+04
 -1        76-2.81458E+03 1.62500E+03 1.20000E+04
 -1        77-3.25000E+03-1.98080E-11 1.20000E+04
 -1        78-2.81458E+03-1.62500E+03 1.20000E+04
 -1        79-1.62500E+03-2.81458E+03 1.20000E+04
 -1        80 1.67225E-11-3.25000E+03 1.20000E+04
 -1        81 1.62500E+03-2.81458E+03 1.20000E+04
 -1        82 2.81458E+03-1.62500E+03 1.20000E+04
 -1        83-1.06955E+04-1.44352E+04-1.40000E+04
 -1        84-4.14373E+03-1.44352E+04-1.40000E+04
 -1        85 4.14373E+03-1.44352E+04-1.40000E+04
 -1        86 1.06955E+04-1.44352E+04-1.40000E+04
 -1        87 1.54649E+04-1.44352E+04-1.40000E+04
 -1        88 1.97504E+04-1.14029E+04-1.40000E+04
 -1        89 1.78154E+04-1.98678E+03-1.40000E+04
 -1        90 1.45032E+04 3.74990E+03-1.40000E+04
 -1        91 1.03413E+04 1.09585E+04-1.40000E+04
 -1        92 7.07922E+03 1.66085E+04-1.40000E+04
 -1        93 4.70913E+03 2.07136E+04-1.40000E+04
 -1        94 2.19702E+04-9.18310E+03 9.11111E+03
 -1        95 2.19702E+04-9.18310E+03 6.22222E+03
 -1        96 2.19702E+04-9.18310E+03 3.33333E+03
 -1        97 2.19702E+04-9.18310E+03 4.44444E+02
 -1        98 2.19702E+04-9.18310E+03-2.44444E+03
 -1        99 2.19702E+04-9.18310E+03-5.33333E+03
 -1       100 2.19702E+04-9.18310E+03-8.22222E+03
 -1       101 2.19702E+04-9.18310E+03-1.11111E+04
 -1       102 1.89379E+04-1.44352E+04 9.11111E+03
 -1       103 1.89379E+04-1.44352E+04 6.22222E+03
 -1       104 1.89379E+04-1.44352E+04 3.33333E+03
 -1       105 1.89379E+04-1.44352E+04 4.44444E+02
 -1       106 1.89379E+04-1.44352E+04-2.44444E+03
 -1       107 1.89379E+04-1.44352E+04-5.33333E+03
 -1       108 1.89379E+04-1.44352E+04-8.22222E+03
 -1       109 1.89379E+04-1.44352E+04-1.11111E+04
 -1       110 3.25000E+03 0.00000E+00 1.36889E+04
 -1       111 3.25000E+03 0.00000E+00 1.53778E+04
 -1       112 3.25000E+03 0.00000E+00 1.70667E+04
 -1       113 3.25000E+03 0.00000E+00 1.87556E+04
 -1       114 3.25000E+03 0.00000E+00 2.04444E+04
 -1       115 3.25000E+03 0.00000E+00 2.21333E+04
 -1       116 3.25000E+03 0.00000E+00 2.38222E+04
 -1       117 3.25000E+03 0.00000E+00 2.55111E+04
 -1       118 3.25000E+03 0.00000E+00 2.72000E+04
 -1       119 3.25000E+03 0.00000E+00 2.88889E+04
 -1       120 3.25000E+03 0.00000E+00 3.05778E+04
 -1       121 3.25000E+03 0.00000E+00 3.22667E+04
 -1       122 3.25000E+03 0.00000E+00 3.39556E+04
 -1       123 3.25000E+03 0.00000E+00 3.56444E+04
 -1       124 3.25000E+03 0.00000E+00 3.73333E+04
 -1       125 3.25000E+03 0.00000E+00 3.90222E+04
 -1       126 3.25000E+03 0.00000E+00 4.07111E+04
 -1       127 3.25000E+03 0.00000E+00 4.24000E+04
 -1       128 3.25000E+03 0.00000E+00 4.40889E+04
 -1       129 3.25000E+03 0.00000E+00 4.57778E+04
 -1       130 3.25000E+03 0.00000E+00 4.74667E+04
 -1       131 3.25000E+03 0.00000E+00 4.91556E+04
 -1       132 3.25000E+03 0.00000E+00 5.08444E+04
 -1       133 3.25000E+03 0.00000E+00 5.25333E+04
 -1       134 3.25000E+03 0.00000E+00 5.42222E+04
 -1       135 3.25000E+03 0.00000E+00 5.59111E+04
 -1       136 3.25000E+03 0.00000E+00 5.76000E+04
 -1       137 3.25000E+03 0.00000E+00 5.92889E+04
 -1       138 3.25000E+03 0.00000E+00 6.09778E+04
 -1       139 3.25000E+03 0.00000E+00 6.26667E+04
 -1       140 3.25000E+03 0.00000E+00 6.43556E+04
 -1       141 3.25000E+03 0.00000E+00 6.60444E+04
 -1       142 3.25000E+03 0.00000E+00 6.77333E+04
 -1       143 3.25000E+03 0.00000E+00 6.94222E+04
 -1       144 3.25000E+03 0.00000E+00 7.11111E+04
 -1       145 3.25000E+03 0.00000E+00 7.28000E+04
 -1       146 3.25000E+03 0.00000E+00 7.44889E+04
 -1       147 3.25000E+03 0.00000E+00 7.61778E+04
 -1       148 3.25000E+03 0.00000E+00 7.78667E+04
 -1       149 3.25000E+03 0.00000E+00 7.95556E+04
 -1       150 3.25000E+03 0.00000E+00 8.12444E+04
 -1       151 3.25000E+03 0.00000E+00 8.29333E+04
 -1       152 3.25000E+03 0.00000E+00 8.46222E+04
 -1       153 3.25000E+03 0.00000E+00 8.63111E+04
 -1       154 2.81458E+03 1.62500E+03 8.80000E+04
 -1       155 1.62500E+03 2.81458E+03 8.80000E+04
 -1       156-1.63988E-11 3.25000E+03 8.80000E+04
 -1       157-1.62500E+03 2.81458E+03 8.80000E+04
 -1       158-2.81458E+03 1.62500E+03 8.80000E+04
 -1       159-3.25000E+03-1.98080E-11 8.80000E+04
 -1       160-2.81458E+03-1.62500E+03 8.80000E+04
 -1       161-1.62500E+03-2.81458E+03 8.80000E+04
 -1       162 1.67225E-11-3.25000E+03 8.80000E+04
 -1       163 1.62500E+03-2.81458E+03 8.80000E+04
 -1       164 2.81458E+03-1.62500E+03 8.80000E+04
 -1       165-1.01425E+04 1.13029E+04-1.00000E+03
 -1       166-1.57634E+04 1.56722E+03-1.00000E+03
 -1       167-1.85726E+04-3.29840E+03-7.03137E+03
 -1       168-1.85726E+04-3.29840E+03 5.03137E+03
 -1       169-1.90867E+04-4.18872E+03-1.00000E+03
 -1       170-6.52129E+03 1.75749E+04 4.47589E+03
 -1       171-6.52129E+03 1.75749E+04-6.47589E+03
 -1       172-6.01566E+03 1.84506E+04-1.00000E+03
 -1       173-1.26286E+04 6.99681E+03 4.53556E+03
 -1       174-1.26286E+04 6.99681E+03-6.53556E+03
 -1       175-2.00270E+04-5.81748E+03-9.44923E+03
 -1       176-2.00270E+04-5.81748E+03 7.44923E+03
 -1       177-1.55066E+04 2.01208E+03 4.73771E+03
 -1       178-1.55066E+04 2.01208E+03-6.73771E+03
 -1       179-4.98049E+03 2.02436E+04 8.09104E+03
 -1       180-4.98049E+03 2.02436E+04-1.00910E+04
 -1       181-2.02484E+04-6.20094E+03 1.91471E+03
 -1       182-2.02484E+04-6.20094E+03-3.91471E+03
 -1       183-4.69902E+03 2.07311E+04-3.88889E+03
 -1       184-4.69902E+03 2.07311E+04 1.88889E+03
 -1       185-9.43770E+03 1.25236E+04-6.45506E+03
 -1       186-9.43770E+03 1.25236E+04 4.45506E+03
 -1       187-1.28248E+04 6.65701E+03-1.00000E+03
 -1       188-2.06570E+04-6.90851E+03 4.90580E+03
 -1       189-2.06569E+04-6.90845E+03-1.00000E+03
 -1       190-2.06570E+04-6.90851E+03-6.90580E+03
 -1       191-1.74215E+04-1.30468E+03 1.25130E+03
 -1       192-1.74215E+04-1.30468E+03-3.25130E+03
 -1       193-1.69351E+04-4.62101E+02-1.00203E+04
 -1       194-1.69351E+04-4.62101E+02 8.02030E+03
 -1       195-4.43478E+03 2.11888E+04-6.80227E+03
 -1       196-4.43478E+03 2.11888E+04 4.80227E+03
 -1       197-4.29155E+03 2.14369E+04-1.00000E+03
 -1       198-7.82532E+03 1.53163E+04-2.96194E+03
 -1       199-7.79538E+03 1.53681E+04 1.04128E+03
 -1       200-1.90269E+04-4.08513E+03 9.81567E+03
 -1       201-1.90269E+04-4.08513E+03-1.18157E+04
 -1       202-2.07335E+04-7.04103E+03-1.16781E+04
 -1       203-2.07335E+04-7.04103E+03 9.67815E+03
 -1       204-8.26947E+03 1.45470E+04 8.16835E+03
 -1       205-8.26947E+03 1.45470E+04-1.01684E+04
 -1       206-1.43622E+04 3.99426E+03 1.64778E+03
 -1       207-1.43622E+04 3.99426E+03-3.64778E+03
 -1       208-1.88255E+04-3.73636E+03-3.81607E+03
 -1       209-1.88255E+04-3.73636E+03 1.81607E+03
 -1       210-1.15320E+04 8.89618E+03-1.01632E+04
 -1       211-1.15320E+04 8.89618E+03 8.16316E+03
 -1       212-1.42211E+04 4.23857E+03-9.49135E+03
 -1       213-1.42211E+04 4.23857E+03 7.49135E+03
 -1       214-2.10951E+04-7.66731E+03 7.52855E+03
 -1       215-2.10951E+04-7.66731E+03-9.52855E+03
 -1       216 2.33862E-12 2.28969E+04-1.20523E+04
 -1       217-8.27174E-12 2.28969E+04 1.00523E+04
 -1       218-2.96656E-12 2.28969E+04-9.55880E+03
 -1       219 2.33862E-12 2.28969E+04-6.77778E+03
 -1       220 2.33862E-12 2.28969E+04 4.77778E+03
 -1       221 2.33862E-12 2.28969E+04 7.55880E+03
 -1       222 2.33862E-12 2.28969E+04-3.88889E+03
 -1       223-2.96656E-12 2.28969E+04-1.00000E+03
 -1       224 2.33862E-12 2.28969E+04 1.88889E+03
 -1       225-1.97504E+04-1.14029E+04-1.20472E+04
 -1       226-1.97504E+04-1.14029E+04 1.00472E+04
 -1       227-1.97504E+04-1.14029E+04-9.55981E+03
 -1       228-1.97504E+04-1.14029E+04-6.77778E+03
 -1       229-1.97504E+04-1.14029E+04 4.77778E+03
 -1       230-1.97504E+04-1.14029E+04 7.55981E+03
 -1       231-1.97504E+04-1.14029E+04-3.88889E+03
 -1       232-1.97504E+04-1.14029E+04-1.00000E+03
 -1       233-1.97504E+04-1.14029E+04 1.88889E+03
 -1       234 7.62487E+03-7.37476E+03 1.20000E+04
 -1       235-1.01929E+04-2.90531E+03 1.20000E+04
 -1       236 1.52631E+03-8.38548E+03 1.20000E+04
 -1       237 8.85396E+03-1.56102E+03 1.20000E+04
 -1       238-5.96241E+03-6.22443E+03 1.20000E+04
 -1       239-9.49573E+03 2.72792E+03 1.20000E+04
 -1       240-2.60825E+03 1.02954E+04 1.20000E+04
 -1       241 2.58162E+03 8.89547E+03 1.20000E+04
 -1       242 1.40315E+04-8.28265E+03 1.20000E+04
 -1       243-1.41791E+04-8.01023E+03 1.20000E+04
 -1       244-1.76199E+02 1.63467E+04 1.20000E+04
 -1       245-1.88499E+03-7.03488E+03 1.20000E+04
 -1       246 7.39058E+03 1.95794E+03 1.20000E+04
 -1       247-6.03301E+03 4.94551E+03 1.20000E+04
 -1       248 5.08492E+03-5.04323E+03 1.20000E+04
 -1       249-6.90375E+03-1.87888E+03 1.20000E+04
 -1       250 5.05977E+03 5.10824E+03 1.20000E+04
 -1       251-1.98353E+03 6.53038E+03 1.20000E+04
 -1       252 3.57653E+03 1.30132E+04 1.20000E+04
 -1       253-4.54362E+03-4.07490E+03 1.20000E+04
 -1       254 5.92359E+03-1.81881E+03 1.20000E+04
 -1       255 1.48439E+03-5.53981E+03 1.20000E+04
 -1       256-5.53592E+03 1.48334E+03 1.20000E+04
 -1       257-2.10399E+03 1.89219E+04 1.20000E+04
 -1       258 1.08859E+04-5.32704E+03 1.20000E+04
 -1       259-1.00756E+04-6.65877E+03 1.20000E+04
 -1       260 1.12475E+03 5.44416E+03 1.20000E+04
 -1       261-1.53453E+04-1.12432E+04 1.20000E+04
 -1       262 1.74079E+04-7.66205E+03 1.20000E+04
 -1       263 9.23286E+03 5.80461E+03 1.20000E+04
 -1       264 1.47570E+03 1.98689E+04 1.20000E+04
 -1       265 1.05857E+04-9.96794E+03 1.20000E+04
 -1       266 1.63932E+04-1.12578E+04 1.20000E+04
 -1       267-1.79412E+04-8.56440E+03 1.20000E+04
 -1       268-1.39185E+04-4.15665E+03 1.20000E+04
 -1       269 1.28346E+04-8.90102E+02 1.20000E+04
 -1       270-7.72583E+03-1.01894E+04 1.20000E+04
 -1       271 3.48435E+03-3.29410E+03 1.20000E+04
 -1       272-4.59229E+03-1.36078E+03 1.20000E+04
 -1       273-9.34422E+03 6.24403E+03 1.20000E+04
 -1       274 3.43872E+03 1.66372E+04 1.20000E+04
 -1       275 4.81424E+03 1.32093E+03 1.20000E+04
 -1       276-1.28328E+02-1.05783E+04 1.20000E+04
 -1       277-3.20671E+03 3.67619E+03 1.20000E+04
 -1       278 6.17244E+03 8.46495E+03 1.20000E+04
 -1       279-1.52296E+03-4.48054E+03 1.20000E+04
 -1       280-8.59246E+01 1.23391E+04 1.20000E+04
 -1       281-6.17125E+03 8.85315E+03 1.20000E+04
 -1       282-1.19202E+03 4.49747E+03 1.20000E+04
 -1       283 1.34342E+04-1.16758E+04 1.20000E+04
 -1       284-1.68151E+04-5.77446E+03 1.20000E+04
 -1       285-1.24798E+04-4.95722E+02 1.20000E+04
 -1       286 6.90028E+03-1.11972E+04 1.20000E+04
 -1       287-3.97393E+03 1.37387E+04 1.20000E+04
 -1       288 1.06395E+04 2.02832E+03 1.20000E+04
 -1       289 7.61900E+03-4.52244E+03 1.20000E+04
 -1       290 4.69445E+03-7.71815E+03 1.20000E+04
 -1       291-7.84618E+03-4.18484E+03 1.20000E+04
 -1       292-8.92164E+03-2.13730E+02 1.20000E+04
 -1       293 3.41083E+03 3.41083E+03 1.20000E+04
 -1       294-1.14211E+04-1.02527E+04 1.20000E+04
 -1       295 1.46216E+04-4.64943E+03 1.20000E+04
 -1       296-3.96906E+03-9.69245E+03 1.20000E+04
 -1       297-3.81569E+02 8.83744E+03 1.20000E+04
 -1       298 3.85700E+03-1.04307E+04 1.20000E+04
 -1       299-3.03239E+03-2.97826E+03 1.20000E+04
 -1       300 4.15442E+03-1.11317E+03 1.20000E+04
 -1       301 8.34620E-12-3.13347E+01-1.40000E+04
 -1       302 3.57889E+02 9.64656E+03-1.40000E+04
 -1       303-8.37202E+03-4.84358E+03-1.40000E+04
 -1       304 8.81076E+03-4.92883E+03-1.40000E+04
 -1       305-4.73951E+02 1.58102E+04-1.40000E+04
 -1       306 1.34504E+04-8.08804E+03-1.40000E+04
 -1       307-1.36863E+04-7.56693E+03-1.40000E+04
 -1       308-6.16117E+03 6.17535E+03-1.40000E+04
 -1       309 5.78918E+03 4.88157E+03-1.40000E+04
 -1       310 6.63464E-12-7.82931E+03-1.40000E+04
 -1       311-1.84308E+03 1.97192E+04-1.40000E+04
 -1       312-1.50114E+04-1.10203E+04-1.40000E+04
 -1       313 1.70511E+04-7.48476E+03-1.40000E+04
 -1       314 1.54616E+03 2.00576E+04-1.40000E+04
 -1       315 4.06969E+03 1.32471E+04-1.40000E+04
 -1       316 9.55432E+03-9.67915E+03-1.40000E+04
 -1       317 1.62567E+04-1.11466E+04-1.40000E+04
 -1       318-1.78410E+04-8.46850E+03-1.40000E+04
 -1       319-1.31461E+04-3.44250E+03-1.40000E+04
 -1       320-9.31775E+03 5.87063E+02-1.40000E+04
 -1       321 9.55015E+03 2.52651E+02-1.40000E+04
 -1       322-4.73955E+03 1.18398E+04-1.40000E+04
 -1       323-9.40019E+03-1.00219E+04-1.40000E+04
 -1       324 1.33180E+04-3.18118E+03-1.40000E+04
 -1       325-1.65420E+04-5.52379E+03-1.40000E+04
 -1       326 1.30844E+04-1.15568E+04-1.40000E+04
 -1       327 3.38605E+03 1.72874E+04-1.40000E+04
 -1       328 5.19220E+03-7.91664E+03-1.40000E+04
 -1       329-3.39983E+03-3.93032E+03-1.40000E+04
 -1       330 4.89038E+03-2.59531E+03-1.40000E+04
 -1       331-8.09954E+02 4.88157E+03-1.40000E+04
 -1       332-5.06315E+03-8.21206E+03-1.40000E+04
 -1       333 5.60368E+03 9.54548E+03-1.40000E+04
 -1       334-4.67679E+03 4.73126E+02-1.40000E+04
 -1       335 9.50081E+03 1.24143E+04-1.00000E+03
 -1       336 1.57564E+04 1.57935E+03-1.00000E+03
 -1       337 6.41986E+03 1.77505E+04 5.08202E+03
 -1       338 6.41986E+03 1.77505E+04-7.08202E+03
 -1       339 1.89398E+04-3.93428E+03 1.90690E+03
 -1       340 1.89796E+04-4.00326E+03-5.10220E+03
 -1       341 5.91953E+03 1.86171E+04-1.00000E+03
 -1       342 1.95229E+04-4.94428E+03-9.66667E+03
 -1       343 1.26286E+04 6.99681E+03 4.53556E+03
 -1       344 1.26286E+04 6.99681E+03-6.53556E+03
 -1       345 1.59452E+04 1.25244E+03 6.92000E+03
 -1       346 1.97626E+04-5.35937E+03 8.35256E+03
 -1       347 1.57238E+04 1.63594E+03-7.37300E+03
 -1       348 2.01118E+04-5.96424E+03-1.00000E+03
 -1       349 4.92629E+03 2.03375E+04 7.46023E+03
 -1       350 4.92629E+03 2.03375E+04-9.46023E+03
 -1       351 4.69902E+03 2.07311E+04-3.88889E+03
 -1       352 4.69902E+03 2.07311E+04 1.88889E+03
 -1       353 8.97526E+03 1.33245E+04-5.87495E+03
 -1       354 8.97526E+03 1.33245E+04 3.87495E+03
 -1       355 1.29679E+04 6.40916E+03-1.00000E+03
 -1       356 2.06646E+04-6.92174E+03-6.98000E+03
 -1       357 2.02822E+04-6.25940E+03 4.95556E+03
 -1       358 4.25813E+03 2.14947E+04-1.00000E+03
 -1       359 4.30046E+03 2.14214E+04 4.90735E+03
 -1       360 4.30046E+03 2.14214E+04-6.90735E+03
 -1       361 2.07256E+04-7.02748E+03-4.09111E+03
 -1       362 1.79169E+04-2.16267E+03-1.29489E+03
 -1       363 2.06548E+04-6.90482E+03 1.92805E+03
 -1       364 8.00360E+03 1.50075E+04 8.05025E+03
 -1       365 8.00360E+03 1.50075E+04-1.00503E+04
 -1       366 1.68983E+04-3.98470E+02 1.88316E+03
 -1       367 1.74813E+04-1.40821E+03-8.63574E+03
 -1       368 7.68465E+03 1.55599E+04 1.18318E+03
 -1       369 7.68465E+03 1.55599E+04-3.18318E+03
 -1       370 1.80754E+04-2.43712E+03 5.66769E+03
 -1       371 1.46582E+04 3.48146E+03 3.00137E+03
 -1       372 2.09905E+04-7.48616E+03 7.90219E+03
 -1       373 1.44372E+04 3.86432E+03-4.27259E+03
 -1       374 2.10401E+04-7.57214E+03-9.83469E+03
 -1       375 1.68156E+04-2.55114E+02-4.45720E+03
 -1       376 5.89388E+03 1.86616E+04-1.18300E+04
 -1       377 5.89388E+03 1.86616E+04 9.83003E+03
 -1       378 4.22005E+03 2.15607E+04 9.66782E+03
 -1       379 4.22005E+03 2.15607E+04-1.16678E+04
 -1       380 1.12810E+04 9.33095E+03-9.77601E+03
 -1       381 1.12825E+04 9.32825E+03 7.77505E+03
 -1       382 1.59067E+04 1.31906E+03-1.07628E+04
 -1       383 1.40600E+04 4.51758E+03-9.07774E+03
 -1       384 1.38745E+04 4.83889E+03 7.11304E+03
 -1       385 1.10221E+04 9.77943E+03 1.82389E+03
 -1       386 1.10250E+04 9.77432E+03-3.83436E+03
 -1       387 3.85933E+03 2.21855E+04 7.52887E+03
 -1       388 3.85933E+03 2.21855E+04-9.52887E+03
 -1       389 6.18077E+03 1.81647E+04 1.78852E+03
 -1       390 6.18077E+03 1.81647E+04-3.78852E+03
 -1       391 5.89962E+03-1.44352E+04-1.00000E+03
 -1       392-6.56114E+03-1.44352E+04-1.00000E+03
 -1       393 1.20644E+04-1.44352E+04-7.07744E+03
 -1       394 1.20644E+04-1.44352E+04 5.07744E+03
 -1       395-1.28989E+04-1.44352E+04 1.90899E+03
 -1       396-1.29727E+04-1.44352E+04-5.08820E+03
 -1       397 1.30698E+04-1.44352E+04-1.00000E+03
 -1       398-1.40310E+04-1.44352E+04-9.66667E+03
 -1       399-3.30761E+02-1.44352E+04-6.56620E+03
 -1       400-3.30761E+02-1.44352E+04 4.56620E+03
 -1       401-6.95489E+03-1.44352E+04 6.91929E+03
 -1       402-1.45488E+04-1.44352E+04 8.35195E+03
 -1       403-6.50505E+03-1.44352E+04-7.34868E+03
 -1       404 1.50467E+04-1.44352E+04-9.45874E+03
 -1       405 1.50467E+04-1.44352E+04 7.45874E+03
 -1       406-1.52314E+04-1.44352E+04-1.00000E+03
 -1       407 1.55124E+04-1.44352E+04 1.88889E+03
 -1       408 1.55124E+04-1.44352E+04-3.88889E+03
 -1       409 6.95997E+03-1.44352E+04 3.86793E+03
 -1       410 6.95997E+03-1.44352E+04-5.86793E+03
 -1       411-9.59542E+02-1.44352E+04-1.00000E+03
 -1       412-1.63261E+04-1.44352E+04-6.97766E+03
 -1       413-1.55768E+04-1.44352E+04 4.95533E+03
 -1       414 1.63089E+04-1.44352E+04-6.90709E+03
 -1       415 1.63089E+04-1.44352E+04 4.90709E+03
 -1       416 1.63330E+04-1.44352E+04-1.00000E+03
 -1       417-1.64522E+04-1.44352E+04-4.08877E+03
 -1       418-1.08606E+04-1.44352E+04-1.28833E+03
 -1       419-1.63166E+04-1.44352E+04 1.92842E+03
 -1       420 8.89631E+03-1.44352E+04-1.00377E+04
 -1       421 8.89631E+03-1.44352E+04 8.03765E+03
 -1       422-8.82748E+03-1.44352E+04 1.88558E+03
 -1       423-1.00636E+04-1.44352E+04-8.56640E+03
 -1       424 9.53613E+03-1.44352E+04 1.17986E+03
 -1       425 9.53613E+03-1.44352E+04-3.17986E+03
 -1       426-1.11877E+04-1.44352E+04 5.66643E+03
 -1       427-4.36484E+03-1.44352E+04 3.00131E+03
 -1       428-1.69894E+04-1.44352E+04 7.90210E+03
 -1       429-3.91552E+03-1.44352E+04-4.26666E+03
 -1       430-1.70731E+04-1.44352E+04-9.83446E+03
 -1       431-8.67173E+03-1.44352E+04-4.43635E+03
 -1       432 1.30869E+04-1.44352E+04-1.18232E+04
 -1       433 1.30869E+04-1.44352E+04 9.82319E+03
 -1       434 1.64677E+04-1.44352E+04 9.67345E+03
 -1       435 1.64677E+04-1.44352E+04-1.16735E+04
 -1       436-6.90373E+03-1.44352E+04-1.07421E+04
 -1       437-3.19424E+03-1.44352E+04-9.09511E+03
 -1       438 2.36753E+03-1.44352E+04 7.75988E+03
 -1       439 2.18024E+03-1.44352E+04-9.07333E+03
 -1       440-2.82810E+03-1.44352E+04 7.12009E+03
 -1       441 2.88694E+03-1.44352E+04 1.85953E+03
 -1       442 2.93037E+03-1.44352E+04-3.94645E+03
 -1       443 1.71884E+04-1.44352E+04 7.52942E+03
 -1       444 1.71884E+04-1.44352E+04-9.52942E+03
 -1       445 1.25457E+04-1.44352E+04 1.78655E+03
 -1       446 1.25457E+04-1.44352E+04-3.78655E+03
 -1       447 1.97504E+04-1.14029E+04-1.20472E+04
 -1       448 1.97504E+04-1.14029E+04 1.00472E+04
 -1       449 1.97504E+04-1.14029E+04-9.55981E+03
 -1       450 1.97504E+04-1.14029E+04-6.77778E+03
 -1       451 1.97504E+04-1.14029E+04 4.77778E+03
 -1       452 1.97504E+04-1.14029E+04 7.55981E+03
 -1       453 1.97504E+04-1.14029E+04-3.88889E+03
 -1       454 1.97504E+04-1.14029E+04-1.00000E+03
 -1       455 1.97504E+04-1.14029E+04 1.88889E+03
 -1       456 1.44125E+03 2.91295E+03 7.55640E+04
 -1       457 1.23799E+03 3.00497E+03 7.43062E+04
 -1       458 2.57167E+03 1.98721E+03 7.46171E+04
 -1       459 2.49685E+03 2.08045E+03 7.31508E+04
 -1       460-2.17111E+03 2.41843E+03 1.45107E+04
 -1       461-1.41977E+03 2.92348E+03 1.35718E+04
 -1       462-1.06347E+03 3.07108E+03 1.49820E+04
 -1       463 2.92345E+03-1.41983E+03 8.07009E+04
 -1       464 1.96422E+03-2.58928E+03 8.00203E+04
 -1       465 2.01208E+03-2.55226E+03 8.15006E+04
 -1       466-1.34644E+03-2.95797E+03 1.56587E+04
 -1       467-1.55429E+03-2.85424E+03 1.39757E+04
 -1       468-2.38915E+03-2.20329E+03 1.49111E+04
 -1       469 5.33405E+02-3.20593E+03 8.06127E+04
 -1       470-2.34437E+03-2.25087E+03 8.53308E+04
 -1       471-1.50877E+03-2.87856E+03 8.60617E+04
 -1       472-1.41072E+03-2.92786E+03 8.43504E+04
 -1       473-2.99818E+03-1.25435E+03 8.51924E+04
 -1       474-2.51458E+03-2.05898E+03 8.40195E+04
 -1       475-3.14751E+03-8.09747E+02 8.35642E+04
 -1       476-1.38848E+03 2.93847E+03 8.46468E+04
 -1       477-1.45270E+03 2.90726E+03 8.62515E+04
 -1       478-2.30037E+03 2.29583E+03 8.52477E+04
 -1       479 3.35750E+01 3.24983E+03 1.43683E+04
 -1       480 1.77716E+02 3.24514E+03 1.59504E+04
 -1       481-5.71499E+00 3.24999E+03 8.55398E+04
 -1       482 1.45412E+02 3.24675E+03 8.39981E+04
 -1       483 1.93281E+03 2.61280E+03 8.33318E+04
 -1       484 6.61170E+02 3.18204E+03 8.23964E+04
 -1       485 1.99156E+03 2.56831E+03 8.15848E+04
 -1       486 1.93184E+03 2.61352E+03 1.80702E+04
 -1       487 8.15504E+02 3.14602E+03 1.75373E+04
 -1       488 2.00800E+03 2.55547E+03 1.66809E+04
 -1       489-3.51335E+02 3.23095E+03 1.30474E+04
 -1       490-3.81115E+02 3.22758E+03 8.69005E+04
 -1       491-4.81637E+02-3.21411E+03 1.33466E+04
 -1       492 1.12667E+02-3.24805E+03 1.51195E+04
 -1       493 9.03230E+02-3.12197E+03 1.35250E+04
 -1       494 1.60924E+03-2.82362E+03 1.50677E+04
 -1       495 9.04304E+02-3.12166E+03 8.64615E+04
 -1       496 7.15364E+01-3.24921E+03 8.49267E+04
 -1       497-4.70147E+02-3.21581E+03 8.66700E+04
 -1       498 1.43169E+03-2.91767E+03 8.48841E+04
 -1       499 2.91278E+03 1.44160E+03 8.21844E+04
 -1       500 2.98684E+03 1.28112E+03 8.35701E+04
 -1       501 2.99066E+03 1.27219E+03 1.65352E+04
 -1       502 2.91589E+03 1.43529E+03 1.80549E+04
 -1       503 3.06270E+03-1.08736E+03 1.42837E+04
 -1       504 3.07655E+03-1.04754E+03 1.30114E+04
 -1       505 2.35098E+03-2.24397E+03 1.36483E+04
 -1       506 2.35416E+03-2.24063E+03 8.63511E+04
 -1       507 3.07697E+03-1.04630E+03 8.69887E+04
 -1       508 3.05493E+03-1.10901E+03 8.57052E+04
 -1       509 2.38490E+03 2.20789E+03 1.34236E+04
 -1       510 3.08710E+03 1.01604E+03 1.30239E+04
 -1       511 3.08647E+03 1.01794E+03 1.40781E+04
 -1       512 3.08616E+03 1.01888E+03 8.59211E+04
 -1       513 3.08586E+03 1.01978E+03 8.69749E+04
 -1       514 2.38343E+03 2.20947E+03 8.65732E+04
 -1       515 2.67234E+03-1.84962E+03 1.53054E+04
 -1       516 2.64720E+03-1.88542E+03 8.47217E+04
 -1       517 2.65687E+03 1.87178E+03 1.52915E+04
 -1       518 1.66171E+03 2.79307E+03 1.48945E+04
 -1       519 2.68149E+03 1.83633E+03 8.48374E+04
 -1       520 1.52316E+03 2.87097E+03 8.51181E+04
 -1       521 2.95764E+03-1.34718E+03 8.35756E+04
 -1       522 1.72309E+03-2.75563E+03 8.33609E+04
 -1       523 1.76214E+03-2.73082E+03 1.66648E+04
 -1       524 2.95661E+03-1.34942E+03 1.65167E+04
 -1       525-3.73724E+02 3.22844E+03 7.54503E+04
 -1       526 1.10049E+03 3.05801E+03 1.91915E+04
 -1       527-2.81338E+03-1.62708E+03 1.34029E+04
 -1       528 7.54066E+02 3.16131E+03 8.07986E+04
 -1       529-3.23722E+03 2.87958E+02 1.58525E+04
 -1       530-2.75959E+03 1.71672E+03 1.56390E+04
 -1       531-2.82244E+03 1.61131E+03 1.72160E+04
 -1       532-1.77855E+03 2.72016E+03 1.61626E+04
 -1       533-1.89524E+03 2.64019E+03 1.77709E+04
 -1       534-3.24331E+03-2.08424E+02 8.60560E+04
 -1       535-2.74496E+03-1.74003E+03 8.66516E+04
 -1       536 2.89792E+03-1.47125E+03 8.22330E+04
 -1       537 2.90570E+03-1.45582E+03 1.78473E+04
 -1       538 1.91759E+03-2.62400E+03 1.85852E+04
 -1       539-3.58967E+02 3.23011E+03 7.38450E+04
 -1       540 1.24037E+03 3.00399E+03 8.67661E+04
 -1       541-1.95183E+03-2.59863E+03 1.83573E+04
 -1       542-4.99509E+02-3.21138E+03 1.82713E+04
 -1       543-1.49664E+03-2.88489E+03 1.71796E+04
 -1       544-3.24790E+03-1.16951E+02 1.96152E+04
 -1       545-2.95117E+03 1.36128E+03 1.98511E+04
 -1       546-3.23897E+03 2.67498E+02 2.09783E+04
 -1       547-1.20468E+02-3.24777E+03 1.69143E+04
 -1       548-1.40385E+03-2.93116E+03 1.92333E+04
 -1       549 3.33254E+02-3.23287E+03 1.94482E+04
 -1       550-1.58699E+03-2.83619E+03 8.29243E+04
 -1       551-5.76826E+02-3.19840E+03 8.16870E+04
 -1       552-1.95599E+03-2.59550E+03 8.15576E+04
 -1       553-1.14077E+03 3.04321E+03 8.29265E+04
 -1       554 7.05420E+01-3.24923E+03 8.34183E+04
 -1       555 1.24469E+03 3.00221E+03 1.32339E+04
 -1       556-1.32533E+03-2.96749E+03 8.05465E+04
 -1       557-3.24856E+03-9.67671E+01 8.45703E+04
 -1       558-3.06550E+03 1.07946E+03 8.53806E+04
 -1       559-3.18483E+03 6.47563E+02 8.36712E+04
 -1       560-8.03468E+02 3.14912E+03 1.69909E+04
 -1       561-5.74869E+02 3.19875E+03 1.84322E+04
 -1       562-2.48340E+03 2.09648E+03 8.38949E+04
 -1       563-2.62139E+03 1.92115E+03 2.09709E+04
 -1       564 1.91294E+03 2.62738E+03 8.00898E+04
 -1       565 3.65921E+02 3.22933E+03 7.94268E+04
 -1       566 1.95562E+03-2.59577E+03 2.01124E+04
 -1       567 2.92574E+03-1.41511E+03 1.94688E+04
 -1       568 4.54298E+02-3.21809E+03 2.09369E+04
 -1       569-2.46671E+03 2.11610E+03 2.42180E+04
 -1       570-2.59027E+03 1.96290E+03 2.26260E+04
 -1       571-1.91441E+03 2.62631E+03 2.33294E+04
 -1       572 1.00530E+03-3.09061E+03 7.92848E+04
 -1       573 2.80906E+03 1.63452E+03 2.11248E+04
 -1       574 1.39824E+03 2.93384E+03 2.16982E+04
 -1       575 1.83310E+03 2.68370E+03 2.03637E+04
 -1       576-2.28037E+03-2.31568E+03 1.62622E+04
 -1       577-2.71238E+03-1.79039E+03 1.74827E+04
 -1       578-2.77786E+03-1.68701E+03 8.24892E+04
 -1       579-2.51004E+03 2.06450E+03 8.65918E+04
 -1       580-3.08622E+03 1.01871E+03 8.68038E+04
 -1       581-2.56694E+03 1.99332E+03 1.31155E+04
 -1       582 8.46388E+02-3.13785E+03 8.19977E+04