
                        S T E P       1


                                INCREMENT     1


 stresses (elem, integ.pnt.,sxx,syy,szz,sxy,sxz,syz) for set SOLIDMATERIALELEMENTGEOMETRY2D and time  0.1000000E+01

       261   1  5.663292E+01 -9.909532E-03 -2.089878E-02  7.107775E-03 -2.106506E-03 -2.122150E-03 _shell_0000000261   
       261   2  5.659034E+01 -1.533655E-02 -1.299591E-02  7.677140E-03 -2.110909E-03  2.121941E-03 _shell_0000000261   
       261   3  5.830528E+01 -3.005257E-03  4.198906E-03  1.027428E-02  2.108938E-03 -2.119959E-03 _shell_0000000261   
       261   4  5.824785E+01 -2.218168E-02 -1.885042E-02  9.681260E-03  2.100877E-03  2.116480E-03 _shell_0000000261   
       261   5  5.663292E+01 -9.909532E-03 -2.089878E-02  7.107775E-03  2.106506E-03  2.122150E-03 _shell_0000000261   
       261   6  5.659034E+01 -1.533655E-02 -1.299591E-02  7.677140E-03  2.110909E-03 -2.121941E-03 _shell_0000000261   
       261   7  5.830528E+01 -3.005257E-03  4.198906E-03  1.027428E-02 -2.108938E-03  2.119959E-03 _shell_0000000261   
       261   8  5.824785E+01 -2.218168E-02 -1.885042E-02  9.681260E-03 -2.100877E-03 -2.116480E-03 _shell_0000000261   
       262   1  5.948438E+01 -2.801386E-02 -2.070260E-02  1.277407E-03 -3.429586E-05 -3.433334E-05 _shell_0000000262   
       262   2  5.955689E+01 -1.459807E-03  1.293235E-02  9.717953E-04 -3.469180E-05  3.472507E-05 _shell_0000000262   
       262   3  6.116827E+01 -2.864557E-02 -2.400724E-02  9.033127E-03  3.469797E-05 -3.473126E-05 _shell_0000000262   
       262   4  6.124367E+01 -7.846353E-04  1.114687E-02  9.628003E-03  3.438611E-05  3.442369E-05 _shell_0000000262   
       262   5  5.948438E+01 -2.801386E-02 -2.070260E-02  1.277407E-03  3.429585E-05  3.433334E-05 _shell_0000000262   
       262   6  5.955689E+01 -1.459807E-03  1.293235E-02  9.717954E-04  3.469179E-05 -3.472508E-05 _shell_0000000262   
       262   7  6.116827E+01 -2.864557E-02 -2.400724E-02  9.033128E-03 -3.469798E-05  3.473126E-05 _shell_0000000262   
       262   8  6.124367E+01 -7.846353E-04  1.114687E-02  9.628003E-03 -3.438612E-05 -3.442370E-05 _shell_0000000262   
       263   1  6.241211E+01 -1.246337E-02 -1.546071E-02 -2.631420E-03 -3.699343E-04 -3.689648E-04 _shell_0000000263   
       263   2  6.247137E+01  3.408409E-03  1.010374E-02 -2.913746E-03 -3.726894E-04  3.721693E-04 _shell_0000000263   
       263   3  6.408955E+01 -1.191145E-02 -1.316970E-02  2.255138E-03  3.727398E-04 -3.722196E-04 _shell_0000000263   
       263   4  6.414895E+01  2.880242E-03  8.713128E-03  2.655545E-03  3.706787E-04  3.697073E-04 _shell_0000000263   
       263   5  6.241211E+01 -1.246337E-02 -1.546071E-02 -2.631420E-03  3.699342E-04  3.689648E-04 _shell_0000000263   
       263   6  6.247137E+01  3.408409E-03  1.010374E-02 -2.913746E-03  3.726894E-04 -3.721693E-04 _shell_0000000263   
       263   7  6.408955E+01 -1.191145E-02 -1.316970E-02  2.255138E-03 -3.727398E-04  3.722196E-04 _shell_0000000263   
       263   8  6.414895E+01  2.880242E-03  8.713128E-03  2.655545E-03 -3.706788E-04 -3.697073E-04 _shell_0000000263   
       264   1  5.956245E+01 -1.523444E-02  1.730075E-03  1.725598E-03  2.233273E-04 -2.235737E-04 _shell_0000000264   
       264   2  6.124912E+01 -1.415849E-02  3.762744E-03  8.773341E-03 -2.217957E-04 -2.226978E-04 _shell_0000000264   
       264   3  5.952431E+01 -2.071703E-02 -3.909866E-03  2.148511E-03  2.213460E-04  2.222463E-04 _shell_0000000264   
       264   4  6.120798E+01 -2.178733E-02 -6.084132E-03  8.308052E-03 -2.234874E-04  2.237340E-04 _shell_0000000264   
       264   5  5.956245E+01 -1.523444E-02  1.730075E-03  1.725599E-03 -2.233273E-04  2.235737E-04 _shell_0000000264   
       264   6  6.124912E+01 -1.415849E-02  3.762744E-03  8.773341E-03  2.217957E-04  2.226978E-04 _shell_0000000264   
       264   7  5.952431E+01 -2.071703E-02 -3.909866E-03  2.148511E-03 -2.213460E-04 -2.222463E-04 _shell_0000000264   
       264   8  6.120798E+01 -2.178733E-02 -6.084132E-03  8.308052E-03  2.234874E-04 -2.237340E-04 _shell_0000000264   
       265   1  6.246848E+01 -2.611315E-02 -5.567073E-03 -1.463644E-02  5.485535E-05  5.493184E-05 _shell_0000000265   
       265   2  6.250442E+01 -2.112545E-02  2.361489E-03 -1.485929E-02  5.508492E-05 -5.507264E-05 _shell_0000000265   
       265   3  6.413704E+01 -2.664938E-02 -7.483165E-03 -1.194599E-02 -5.509093E-05  5.507863E-05 _shell_0000000265   
       265   4  6.417479E+01 -2.061105E-02  2.168448E-03 -1.172751E-02 -5.492521E-05 -5.500179E-05 _shell_0000000265   
       265   5  6.246848E+01 -2.611315E-02 -5.567073E-03 -1.463644E-02 -5.485536E-05 -5.493184E-05 _shell_0000000265   
       265   6  6.250442E+01 -2.112545E-02  2.361489E-03 -1.485929E-02 -5.508493E-05  5.507264E-05 _shell_0000000265   
       265   7  6.413704E+01 -2.664938E-02 -7.483165E-03 -1.194599E-02  5.509092E-05 -5.507864E-05 _shell_0000000265   
       265   8  6.417479E+01 -2.061105E-02  2.168448E-03 -1.172751E-02  5.492520E-05  5.500179E-05 _shell_0000000265   
       266   1 -7.097578E-05 -3.794365E-04 -1.187915E-04  4.189545E-05 -4.274392E-07 -4.274393E-07 _shell_0000000266   
       266   2 -6.969347E-05 -3.713232E-04 -1.209762E-04  4.189545E-05 -4.274394E-07  4.274394E-07 _shell_0000000266   
       266   3 -2.610608E-05 -3.781542E-04  8.141918E-07  4.189546E-05  4.274394E-07 -4.274394E-07 _shell_0000000266   
       266   4 -2.738841E-05 -3.726056E-04 -7.354709E-06  4.189547E-05  4.274393E-07  4.274394E-07 _shell_0000000266   
       266   5 -7.097578E-05 -3.794365E-04 -1.187915E-04  4.189545E-05  4.274392E-07  4.274393E-07 _shell_0000000266   
       266   6 -6.969347E-05 -3.713232E-04 -1.209762E-04  4.189545E-05  4.274394E-07 -4.274394E-07 _shell_0000000266   
       266   7 -2.610608E-05 -3.781542E-04  8.141918E-07  4.189546E-05 -4.274394E-07  4.274394E-07 _shell_0000000266   
       266   8 -2.738841E-05 -3.726056E-04 -7.354709E-06  4.189547E-05 -4.274393E-07 -4.274394E-07 _shell_0000000266   
       267   1 -3.239407E-05 -4.053612E-04  2.776621E-05  2.915082E-05  3.775995E-07 -3.775994E-07 _shell_0000000267   
       267   2 -4.697573E-05 -4.042285E-04 -1.684943E-06  2.915081E-05 -3.775990E-07 -3.775993E-07 _shell_0000000267   
       267   3 -3.126126E-05 -4.115304E-04  3.448572E-05  2.915081E-05  3.775989E-07  3.775992E-07 _shell_0000000267   
       267   4 -4.810852E-05 -4.126633E-04 -2.518427E-07  2.915081E-05 -3.775995E-07  3.775994E-07 _shell_0000000267   
       267   5 -3.239407E-05 -4.053612E-04  2.776621E-05  2.915082E-05 -3.775995E-07  3.775994E-07 _shell_0000000267   
       267   6 -4.697573E-05 -4.042285E-04 -1.684943E-06  2.915081E-05  3.775990E-07  3.775993E-07 _shell_0000000267   
       267   7 -3.126126E-05 -4.115304E-04  3.448572E-05  2.915081E-05 -3.775989E-07 -3.775992E-07 _shell_0000000267   
       267   8 -4.810852E-05 -4.126633E-04 -2.518427E-07  2.915081E-05  3.775995E-07 -3.775994E-07 _shell_0000000267   
       268   1 -4.903132E-05  3.654545E-05  5.882706E-06 -9.348946E-06  4.966171E-07 -4.966171E-07 _shell_0000000268   
       268   2  2.307682E-06  3.505560E-05  1.761462E-05 -9.348946E-06 -4.966171E-07 -4.966171E-07 _shell_0000000268   
       268   3 -5.052117E-05  6.477754E-05  3.984029E-06 -9.348946E-06  4.966171E-07  4.966171E-07 _shell_0000000268   
       268   4  3.797533E-06  6.626739E-05  2.266858E-05 -9.348946E-06 -4.966171E-07  4.966171E-07 _shell_0000000268   
       268   5 -4.903132E-05  3.654545E-05  5.882706E-06 -9.348946E-06 -4.966171E-07  4.966171E-07 _shell_0000000268   
       268   6  2.307682E-06  3.505560E-05  1.761462E-05 -9.348946E-06  4.966171E-07  4.966171E-07 _shell_0000000268   
       268   7 -5.052117E-05  6.477754E-05  3.984029E-06 -9.348946E-06 -4.966171E-07 -4.966171E-07 _shell_0000000268   
       268   8  3.797533E-06  6.626739E-05  2.266858E-05 -9.348946E-06  4.966171E-07 -4.966171E-07 _shell_0000000268   
       269   1 -5.630495E-05  5.644572E-05 -2.625530E-06 -1.559617E-06 -7.510059E-08  7.510059E-08 _shell_0000000269   
       269   2 -7.354395E-05  5.667102E-05 -4.183081E-06 -1.559617E-06  7.510059E-08  7.510059E-08 _shell_0000000269   
       269   3 -5.607965E-05  5.112351E-05 -7.215390E-07 -1.559617E-06 -7.510059E-08 -7.510059E-08 _shell_0000000269   
       269   4 -7.376926E-05  5.089821E-05 -3.330498E-06 -1.559617E-06  7.510059E-08 -7.510059E-08 _shell_0000000269   
       269   5 -5.630495E-05  5.644572E-05 -2.625530E-06 -1.559617E-06  7.510059E-08 -7.510059E-08 _shell_0000000269   
       269   6 -7.354395E-05  5.667102E-05 -4.183081E-06 -1.559617E-06 -7.510059E-08 -7.510059E-08 _shell_0000000269   
       269   7 -5.607965E-05  5.112351E-05 -7.215390E-07 -1.559617E-06  7.510059E-08  7.510059E-08 _shell_0000000269   
       269   8 -7.376926E-05  5.089821E-05 -3.330498E-06 -1.559617E-06 -7.510059E-08  7.510059E-08 _shell_0000000269   
       270   1 -5.160111E+00  3.624973E-01  4.534491E+00  7.620370E+00  1.133291E-01 -1.133291E-01 _shell_0000000270   
       270   2 -1.633840E+01  2.250991E-02  3.121968E+00  7.620370E+00 -1.133291E-01 -1.133291E-01 _shell_0000000270   
       270   3 -5.500098E+00 -9.883666E+00 -1.076025E+00  7.620370E+00  1.133291E-01  1.133291E-01 _shell_0000000270   
       270   4 -1.599841E+01 -9.543679E+00 -9.019397E-01  7.620370E+00 -1.133291E-01  1.133291E-01 _shell_0000000270   
       270   5 -5.160111E+00  3.624973E-01  4.534491E+00  7.620370E+00 -1.133291E-01  1.133291E-01 _shell_0000000270   
       270   6 -1.633840E+01  2.250991E-02  3.121968E+00  7.620370E+00  1.133291E-01  1.133291E-01 _shell_0000000270   
       270   7 -5.500098E+00 -9.883666E+00 -1.076025E+00  7.620370E+00 -1.133291E-01 -1.133291E-01 _shell_0000000270   
       270   8 -1.599841E+01 -9.543679E+00 -9.019397E-01  7.620370E+00  1.133291E-01 -1.133291E-01 _shell_0000000270   
       271   1 -7.183770E-05  5.287334E-05 -7.478316E-07  3.490442E-06 -1.805145E-07 -1.805145E-07 _shell_0000000271   
       271   2 -7.237924E-05 -6.196567E-06 -2.031024E-05  3.490442E-06 -1.805145E-07  1.805145E-07 _shell_0000000271   
       271   3 -1.503651E-05  5.233180E-05  1.721854E-05  3.490442E-06  1.805145E-07 -1.805145E-07 _shell_0000000271   
       271   4 -1.449497E-05 -5.655024E-06  1.833347E-07  3.490442E-06  1.805145E-07  1.805145E-07 _shell_0000000271   
       271   5 -7.183770E-05  5.287334E-05 -7.478316E-07  3.490442E-06  1.805145E-07  1.805145E-07 _shell_0000000271   
       271   6 -7.237924E-05 -6.196567E-06 -2.031024E-05  3.490442E-06  1.805145E-07 -1.805145E-07 _shell_0000000271   
       271   7 -1.503651E-05  5.233180E-05  1.721854E-05  3.490442E-06 -1.805145E-07  1.805145E-07 _shell_0000000271   
       271   8 -1.449497E-05 -5.655024E-06  1.833347E-07  3.490442E-06 -1.805145E-07 -1.805145E-07 _shell_0000000271   
       272   1 -6.220810E-05  6.068230E-05  4.078309E-06 -1.280634E-06 -3.702825E-08  3.702825E-08 _shell_0000000272   
       272   2 -7.600632E-05  6.079339E-05  2.325363E-07 -1.280634E-06  3.702825E-08  3.702825E-08 _shell_0000000272   
       272   3 -6.209702E-05  5.454760E-05 -5.153997E-07 -1.280634E-06 -3.702825E-08 -3.702825E-08 _shell_0000000272   
       272   4 -7.611741E-05  5.443652E-05 -4.879568E-06 -1.280634E-06  3.702825E-08 -3.702825E-08 _shell_0000000272   
       272   5 -6.220810E-05  6.068230E-05  4.078309E-06 -1.280634E-06  3.702825E-08 -3.702825E-08 _shell_0000000272   
       272   6 -7.600632E-05  6.079339E-05  2.325363E-07 -1.280634E-06 -3.702825E-08 -3.702825E-08 _shell_0000000272   
       272   7 -6.209702E-05  5.454760E-05 -5.153997E-07 -1.280634E-06  3.702825E-08  3.702825E-08 _shell_0000000272   
       272   8 -7.611741E-05  5.443652E-05 -4.879568E-06 -1.280634E-06 -3.702825E-08  3.702825E-08 _shell_0000000272   
       273   1 -2.417318E+01 -1.541682E+01 -4.384154E-01  1.903002E+01  2.532680E-02 -2.532680E-02 _shell_0000000273   
       273   2 -3.274413E+01 -1.549280E+01 -1.477983E-01  1.903002E+01 -2.532680E-02 -2.532680E-02 _shell_0000000273   
       273   3 -2.424916E+01 -1.232751E+01 -1.141168E+00  1.903002E+01  2.532680E-02  2.532680E-02 _shell_0000000273   
       273   4 -3.266815E+01 -1.225153E+01 -4.959754E-01  1.903002E+01 -2.532680E-02  2.532680E-02 _shell_0000000273   
       273   5 -2.417318E+01 -1.541682E+01 -4.384154E-01  1.903002E+01 -2.532680E-02  2.532680E-02 _shell_0000000273   
       273   6 -3.274413E+01 -1.549280E+01 -1.477983E-01  1.903002E+01  2.532680E-02  2.532680E-02 _shell_0000000273   
       273   7 -2.424916E+01 -1.232751E+01 -1.141168E+00  1.903002E+01 -2.532680E-02 -2.532680E-02 _shell_0000000273   
       273   8 -3.266815E+01 -1.225153E+01 -4.959754E-01  1.903002E+01  2.532680E-02 -2.532680E-02 _shell_0000000273   
       274   1 -6.357305E-06 -9.521117E-07 -1.384759E-07  3.379154E-06 -1.106228E-09  1.106228E-09 _shell_0000000274   
       274   2 -5.761768E-06 -9.554304E-07 -3.390667E-07  3.379154E-06  1.106228E-09  1.106228E-09 _shell_0000000274   
       274   3 -6.360624E-06 -4.083917E-07  3.921572E-07  3.379154E-06 -1.106228E-09 -1.106228E-09 _shell_0000000274   
       274   4 -5.758450E-06 -4.050730E-07  2.070536E-07  3.379154E-06  1.106228E-09 -1.106228E-09 _shell_0000000274   
       274   5 -6.357305E-06 -9.521117E-07 -1.384759E-07  3.379154E-06  1.106228E-09 -1.106228E-09 _shell_0000000274   
       274   6 -5.761768E-06 -9.554304E-07 -3.390667E-07  3.379154E-06 -1.106228E-09 -1.106228E-09 _shell_0000000274   
       274   7 -6.360624E-06 -4.083917E-07  3.921572E-07  3.379154E-06  1.106228E-09  1.106228E-09 _shell_0000000274   
       274   8 -5.758450E-06 -4.050730E-07  2.070536E-07  3.379154E-06 -1.106228E-09  1.106228E-09 _shell_0000000274   
       275   1 -3.789866E-06 -4.731013E-07  1.481159E-07  2.578426E-06 -3.136432E-10  3.136432E-10 _shell_0000000275   
       275   2 -4.405237E-06 -4.721604E-07  3.450598E-07  2.578426E-06  3.136432E-10  3.136432E-10 _shell_0000000275   
       275   3 -3.788925E-06 -9.078692E-07 -2.825333E-07  2.578426E-06 -3.136432E-10 -3.136432E-10 _shell_0000000275   
       275   4 -4.406178E-06 -9.088101E-07 -8.998033E-08  2.578426E-06  3.136433E-10 -3.136432E-10 _shell_0000000275   
       275   5 -3.789866E-06 -4.731013E-07  1.481159E-07  2.578426E-06  3.136433E-10 -3.136432E-10 _shell_0000000275   
       275   6 -4.405237E-06 -4.721604E-07  3.450598E-07  2.578426E-06 -3.136432E-10 -3.136432E-10 _shell_0000000275   
       275   7 -3.788925E-06 -9.078692E-07 -2.825333E-07  2.578426E-06  3.136433E-10  3.136432E-10 _shell_0000000275   
       275   8 -4.406178E-06 -9.088101E-07 -8.998033E-08  2.578426E-06 -3.136432E-10  3.136432E-10 _shell_0000000275   
       276   1 -7.030882E-06 -1.396482E-06  1.405079E-07  5.503676E-06  1.194313E-09 -1.194313E-09 _shell_0000000276   
       276   2 -7.125128E-06 -1.400065E-06  4.160967E-07  5.503676E-06 -1.194313E-09 -1.194313E-09 _shell_0000000276   
       276   3 -7.034465E-06 -1.930217E-06 -3.804427E-07  5.503676E-06  1.194313E-09  1.194313E-09 _shell_0000000276   
       276   4 -7.121545E-06 -1.926634E-06 -8.813362E-08  5.503676E-06 -1.194313E-09  1.194313E-09 _shell_0000000276   
       276   5 -7.030882E-06 -1.396482E-06  1.405079E-07  5.503676E-06 -1.194313E-09  1.194313E-09 _shell_0000000276   
       276   6 -7.125128E-06 -1.400065E-06  4.160967E-07  5.503676E-06  1.194313E-09  1.194313E-09 _shell_0000000276   
       276   7 -7.034465E-06 -1.930217E-06 -3.804427E-07  5.503676E-06 -1.194313E-09 -1.194313E-09 _shell_0000000276   
       276   8 -7.121545E-06 -1.926634E-06 -8.813362E-08  5.503676E-06  1.194313E-09 -1.194313E-09 _shell_0000000276   
       277   1 -5.099724E-06 -1.899061E-06 -3.389970E-07  4.337329E-06 -1.242886E-11 -1.242886E-11 _shell_0000000277   
       277   2 -5.099761E-06 -1.460994E-06  9.741626E-08  4.337329E-06 -1.242886E-11  1.242886E-11 _shell_0000000277   
       277   3 -5.220953E-06 -1.899099E-06 -5.364877E-08  4.337329E-06  1.242887E-11 -1.242886E-11 _shell_0000000277   
       277   4 -5.220916E-06 -1.460957E-06  3.829385E-07  4.337329E-06  1.242887E-11  1.242887E-11 _shell_0000000277   
       277   5 -5.099724E-06 -1.899061E-06 -3.389970E-07  4.337329E-06  1.242887E-11  1.242886E-11 _shell_0000000277   
       277   6 -5.099761E-06 -1.460994E-06  9.741626E-08  4.337329E-06  1.242887E-11 -1.242886E-11 _shell_0000000277   
       277   7 -5.220953E-06 -1.899099E-06 -5.364877E-08  4.337329E-06 -1.242886E-11  1.242886E-11 _shell_0000000277   
       277   8 -5.220916E-06 -1.460957E-06  3.829385E-07  4.337329E-06 -1.242886E-11 -1.242886E-11 _shell_0000000277   
       278   1  4.891625E-05 -2.508519E-04  2.458818E-05  1.082865E-04  4.720734E-06 -4.720734E-06 _shell_0000000278   
       278   2  2.136448E-05 -2.650141E-04 -6.964337E-05  1.082865E-04 -4.720733E-06 -4.720734E-06 _shell_0000000278   
       278   3  3.475405E-05 -5.828628E-05  1.249598E-05  1.082864E-04  4.720733E-06  4.720734E-06 _shell_0000000278   
       278   4  3.552668E-05 -4.412408E-05 -1.564529E-05  1.082865E-04 -4.720734E-06  4.720734E-06 _shell_0000000278   
       278   5  4.891625E-05 -2.508519E-04  2.458818E-05  1.082865E-04 -4.720734E-06  4.720734E-06 _shell_0000000278   
       278   6  2.136448E-05 -2.650141E-04 -6.964337E-05  1.082865E-04  4.720733E-06  4.720734E-06 _shell_0000000278   
       278   7  3.475405E-05 -5.828628E-05  1.249598E-05  1.082864E-04 -4.720733E-06 -4.720734E-06 _shell_0000000278   
       278   8  3.552668E-05 -4.412408E-05 -1.564529E-05  1.082865E-04  4.720734E-06 -4.720734E-06 _shell_0000000278   
       279   1 -7.566386E-05 -4.890604E-04 -1.051697E-04  8.989032E-05  7.317030E-06 -7.317030E-06 _shell_0000000279   
       279   2 -4.981254E-05 -4.671093E-04 -1.349995E-06  8.989032E-05 -7.317030E-06 -7.317030E-06 _shell_0000000279   
       279   3 -5.371276E-05 -3.467203E-04 -1.523377E-07  8.989032E-05  7.317030E-06  7.317030E-06 _shell_0000000279   
       279   4 -7.176363E-05 -3.686714E-04  1.228920E-06  8.989032E-05 -7.317031E-06  7.317030E-06 _shell_0000000279   
       279   5 -7.566386E-05 -4.890604E-04 -1.051697E-04  8.989032E-05 -7.317030E-06  7.317030E-06 _shell_0000000279   
       279   6 -4.981254E-05 -4.671093E-04 -1.349995E-06  8.989032E-05  7.317030E-06  7.317030E-06 _shell_0000000279   
       279   7 -5.371276E-05 -3.467203E-04 -1.523377E-07  8.989032E-05 -7.317030E-06 -7.317030E-06 _shell_0000000279   
       279   8 -7.176363E-05 -3.686714E-04  1.228920E-06  8.989032E-05  7.317031E-06 -7.317030E-06 _shell_0000000279   
       280   1 -1.327891E-05 -3.778019E-04  3.543735E-05  2.699754E-05  5.278008E-07  5.278008E-07 _shell_0000000280   
       280   2 -1.486231E-05 -3.225904E-04  4.245903E-05  2.699754E-05  5.278009E-07 -5.278009E-07 _shell_0000000280   
       280   3 -5.330357E-05 -3.793854E-04  9.850063E-07  2.699754E-05 -5.278009E-07  5.278009E-07 _shell_0000000280   
       280   4 -5.172017E-05 -3.210070E-04  1.539590E-05  2.699754E-05 -5.278008E-07 -5.278009E-07 _shell_0000000280   
       280   5 -1.327891E-05 -3.778019E-04  3.543735E-05  2.699754E-05 -5.278008E-07 -5.278008E-07 _shell_0000000280   
       280   6 -1.486231E-05 -3.225904E-04  4.245903E-05  2.699754E-05 -5.278009E-07  5.278009E-07 _shell_0000000280   
       280   7 -5.330357E-05 -3.793854E-04  9.850063E-07  2.699754E-05  5.278009E-07 -5.278009E-07 _shell_0000000280   
       280   8 -5.172017E-05 -3.210070E-04  1.539590E-05  2.699754E-05  5.278008E-07  5.278009E-07 _shell_0000000280   
       281   1 -3.784850E-05 -4.206552E-04  3.464464E-05  2.857531E-05  1.256802E-07 -1.256799E-07 _shell_0000000281   
       281   2 -4.816181E-05 -4.202784E-04  4.043390E-07  2.857529E-05 -1.256795E-07 -1.256798E-07 _shell_0000000281   
       281   3 -3.747141E-05 -4.319558E-04  3.644921E-05  2.857527E-05  1.256793E-07  1.256796E-07 _shell_0000000281   
       281   4 -4.853882E-05 -4.323331E-04  4.493520E-07  2.857525E-05 -1.256802E-07  1.256799E-07 _shell_0000000281   
       281   5 -3.784850E-05 -4.206552E-04  3.464464E-05  2.857531E-05 -1.256802E-07  1.256799E-07 _shell_0000000281   
       281   6 -4.816181E-05 -4.202784E-04  4.043390E-07  2.857529E-05  1.256795E-07  1.256798E-07 _shell_0000000281   
       281   7 -3.747141E-05 -4.319558E-04  3.644921E-05  2.857527E-05 -1.256793E-07 -1.256796E-07 _shell_0000000281   
       281   8 -4.853882E-05 -4.323331E-04  4.493520E-07  2.857525E-05  1.256802E-07 -1.256799E-07 _shell_0000000281   
       282   1 -6.236435E-05 -3.931900E-04 -1.764327E-07  4.892385E-05 -2.214256E-08 -2.214256E-08 _shell_0000000282   
       282   2 -6.243077E-05 -3.927809E-04  1.180260E-06  4.892385E-05 -2.214257E-08  2.214257E-08 _shell_0000000282   
       282   3 -7.891880E-05 -3.932564E-04 -1.636908E-05  4.892385E-05  2.214257E-08 -2.214257E-08 _shell_0000000282   
       282   4 -7.885237E-05 -3.927145E-04 -1.470239E-05  4.892384E-05  2.214256E-08  2.214256E-08 _shell_0000000282   
       282   5 -6.236435E-05 -3.931900E-04 -1.764327E-07  4.892385E-05  2.214256E-08  2.214256E-08 _shell_0000000282   
       282   6 -6.243077E-05 -3.927809E-04  1.180260E-06  4.892385E-05  2.214257E-08 -2.214257E-08 _shell_0000000282   
       282   7 -7.891880E-05 -3.932564E-04 -1.636908E-05  4.892385E-05 -2.214257E-08  2.214257E-08 _shell_0000000282   
       282   8 -7.885237E-05 -3.927145E-04 -1.470239E-05  4.892384E-05 -2.214256E-08 -2.214256E-08 _shell_0000000282   
       283   1 -5.277837E-05 -3.933622E-04 -5.541273E-06  2.920813E-05  4.237361E-08 -4.237360E-08 _shell_0000000283   
       283   2 -5.676728E-05 -3.932351E-04  4.030699E-06  2.920813E-05 -4.237357E-08 -4.237359E-08 _shell_0000000283   
       283   3 -5.265125E-05 -4.137960E-04 -8.928631E-06  2.920813E-05  4.237356E-08  4.237359E-08 _shell_0000000283   
       283   4 -5.689440E-05 -4.139232E-04  5.011026E-08  2.920812E-05 -4.237361E-08  4.237360E-08 _shell_0000000283   
       283   5 -5.277837E-05 -3.933622E-04 -5.541273E-06  2.920813E-05 -4.237361E-08  4.237360E-08 _shell_0000000283   
       283   6 -5.676728E-05 -3.932351E-04  4.030699E-06  2.920813E-05  4.237357E-08  4.237359E-08 _shell_0000000283   
       283   7 -5.265125E-05 -4.137960E-04 -8.928631E-06  2.920813E-05 -4.237356E-08 -4.237359E-08 _shell_0000000283   
       283   8 -5.689440E-05 -4.139232E-04  5.011026E-08  2.920812E-05  4.237361E-08 -4.237360E-08 _shell_0000000283   
       284   1 -6.173491E-05 -4.109604E-04  8.327260E-07  3.841810E-05  2.407842E-08 -2.407841E-08 _shell_0000000284   
       284   2 -5.698103E-05 -4.108882E-04  1.412490E-06  3.841810E-05 -2.407841E-08 -2.407841E-08 _shell_0000000284   
       284   3 -6.166266E-05 -4.198811E-04  1.892128E-07  3.841809E-05  2.407840E-08  2.407841E-08 _shell_0000000284   
       284   4 -5.705325E-05 -4.199533E-04  4.318776E-07  3.841810E-05 -2.407842E-08  2.407841E-08 _shell_0000000284   
       284   5 -6.173491E-05 -4.109604E-04  8.327260E-07  3.841810E-05 -2.407842E-08  2.407841E-08 _shell_0000000284   
       284   6 -5.698103E-05 -4.108882E-04  1.412490E-06  3.841810E-05  2.407841E-08  2.407841E-08 _shell_0000000284   
       284   7 -6.166266E-05 -4.198811E-04  1.892128E-07  3.841809E-05 -2.407840E-08 -2.407841E-08 _shell_0000000284   
       284   8 -5.705325E-05 -4.199533E-04  4.318776E-07  3.841810E-05  2.407842E-08 -2.407841E-08 _shell_0000000284   
       285   1 -5.603459E-05 -4.123849E-04 -6.460410E-06  5.260106E-05  3.392593E-07 -3.392593E-07 _shell_0000000285   
       285   2 -5.382366E-05 -4.113671E-04 -6.291356E-07  5.260106E-05 -3.392593E-07 -3.392593E-07 _shell_0000000285   
       285   3 -5.501681E-05 -4.089082E-04 -6.364019E-07  5.260106E-05  3.392593E-07  3.392593E-07 _shell_0000000285   
       285   4 -5.484144E-05 -4.099260E-04  4.452416E-07  5.260106E-05 -3.392593E-07  3.392593E-07 _shell_0000000285   
       285   5 -5.603459E-05 -4.123849E-04 -6.460410E-06  5.260106E-05 -3.392593E-07  3.392593E-07 _shell_0000000285   
       285   6 -5.382366E-05 -4.113671E-04 -6.291356E-07  5.260106E-05  3.392593E-07  3.392593E-07 _shell_0000000285   
       285   7 -5.501681E-05 -4.089082E-04 -6.364019E-07  5.260106E-05 -3.392593E-07 -3.392593E-07 _shell_0000000285   
       285   8 -5.484144E-05 -4.099260E-04  4.452416E-07  5.260106E-05  3.392593E-07 -3.392593E-07 _shell_0000000285   
       286   1 -6.156298E-05 -4.081801E-04  6.175658E-07  4.962305E-05  4.548429E-08  4.548429E-08 _shell_0000000286   
       286   2 -6.169943E-05 -4.099231E-04 -9.427100E-07  4.962305E-05  4.548429E-08 -4.548429E-08 _shell_0000000286   
       286   3 -5.728227E-05 -4.083166E-04  1.257583E-06  4.962305E-05 -4.548429E-08  4.548429E-08 _shell_0000000286   
       286   4 -5.714581E-05 -4.097866E-04  3.340871E-07  4.962305E-05 -4.548429E-08 -4.548429E-08 _shell_0000000286   
       286   5 -6.156298E-05 -4.081801E-04  6.175658E-07  4.962305E-05 -4.548429E-08 -4.548429E-08 _shell_0000000286   
       286   6 -6.169943E-05 -4.099231E-04 -9.427100E-07  4.962305E-05 -4.548429E-08  4.548429E-08 _shell_0000000286   
       286   7 -5.728227E-05 -4.083166E-04  1.257583E-06  4.962305E-05  4.548429E-08 -4.548429E-08 _shell_0000000286   
       286   8 -5.714581E-05 -4.097866E-04  3.340871E-07  4.962305E-05  4.548429E-08  4.548429E-08 _shell_0000000286   
       287   1 -5.778085E-05 -4.271028E-04 -1.836434E-06  4.118099E-05 -6.267791E-09 -6.267791E-09 _shell_0000000287   
       287   2 -5.776206E-05 -4.205325E-04 -1.552535E-06  4.118099E-05 -6.267793E-09  6.267792E-09 _shell_0000000287   
       287   3 -5.467279E-05 -4.270840E-04  4.790776E-07  4.118099E-05  6.267792E-09 -6.267791E-09 _shell_0000000287   
       287   4 -5.469160E-05 -4.205514E-04  6.752278E-07  4.118100E-05  6.267792E-09  6.267792E-09 _shell_0000000287   
       287   5 -5.778085E-05 -4.271028E-04 -1.836434E-06  4.118099E-05  6.267791E-09  6.267791E-09 _shell_0000000287   
       287   6 -5.776206E-05 -4.205325E-04 -1.552535E-06  4.118099E-05  6.267793E-09 -6.267792E-09 _shell_0000000287   
       287   7 -5.467279E-05 -4.270840E-04  4.790776E-07  4.118099E-05 -6.267792E-09  6.267791E-09 _shell_0000000287   
       287   8 -5.469160E-05 -4.205514E-04  6.752278E-07  4.118100E-05 -6.267792E-09 -6.267791E-09 _shell_0000000287   
       288   1 -1.047781E-05 -1.558211E-05 -1.015309E-06  2.812134E-05  1.988044E-07 -1.988044E-07 _shell_0000000288   
       288   2 -9.198342E-06 -1.617853E-05 -3.036220E-06  2.812134E-05 -1.988044E-07 -1.988044E-07 _shell_0000000288   
       288   3 -1.107422E-05 -1.340192E-05 -5.243560E-07  2.812134E-05  1.988044E-07  1.988044E-07 _shell_0000000288   
       288   4 -8.601929E-06 -1.280551E-05  2.379946E-07  2.812134E-05 -1.988044E-07  1.988044E-07 _shell_0000000288   
       288   5 -1.047781E-05 -1.558211E-05 -1.015309E-06  2.812134E-05 -1.988044E-07  1.988044E-07 _shell_0000000288   
       288   6 -9.198342E-06 -1.617853E-05 -3.036220E-06  2.812134E-05  1.988044E-07  1.988044E-07 _shell_0000000288   
       288   7 -1.107422E-05 -1.340192E-05 -5.243560E-07  2.812134E-05 -1.988044E-07 -1.988044E-07 _shell_0000000288   
       288   8 -8.601929E-06 -1.280551E-05  2.379946E-07  2.812134E-05  1.988044E-07 -1.988044E-07 _shell_0000000288   
       289   1 -4.621144E-05 -2.611095E-04 -5.513096E-06  4.051844E-05 -1.460397E-08 -1.460397E-08 _shell_0000000289   
       289   2 -4.616763E-05 -2.523614E-04 -6.182408E-06  4.051844E-05 -1.460397E-08  1.460397E-08 _shell_0000000289   
       289   3 -4.507233E-05 -2.610657E-04  5.362004E-07  4.051844E-05  1.460397E-08 -1.460397E-08 _shell_0000000289   
       289   4 -4.511614E-05 -2.524052E-04 -3.375667E-07  4.051844E-05  1.460397E-08  1.460397E-08 _shell_0000000289   
       289   5 -4.621144E-05 -2.611095E-04 -5.513096E-06  4.051844E-05  1.460397E-08  1.460397E-08 _shell_0000000289   
       289   6 -4.616763E-05 -2.523614E-04 -6.182408E-06  4.051844E-05  1.460397E-08 -1.460397E-08 _shell_0000000289   
       289   7 -4.507233E-05 -2.610657E-04  5.362004E-07  4.051844E-05 -1.460397E-08  1.460397E-08 _shell_0000000289   
       289   8 -4.511614E-05 -2.524052E-04 -3.375667E-07  4.051844E-05 -1.460397E-08 -1.460397E-08 _shell_0000000289   
       290   1 -8.027079E-06 -1.796790E-05 -2.431108E-06  2.612282E-05 -4.521495E-07  4.521495E-07 _shell_0000000290   
       290   2 -2.333374E-06 -1.661145E-05  4.069574E-06  2.612282E-05  4.521495E-07  4.521495E-07 _shell_0000000290   
       290   3 -6.670631E-06 -1.438961E-05  1.683004E-07  2.612282E-05 -4.521495E-07 -4.521495E-07 _shell_0000000290   
       290   4 -3.689822E-06 -1.574605E-05  3.388893E-07  2.612282E-05  4.521495E-07 -4.521495E-07 _shell_0000000290   
       290   5 -8.027079E-06 -1.796790E-05 -2.431108E-06  2.612282E-05  4.521495E-07 -4.521495E-07 _shell_0000000290   
       290   6 -2.333374E-06 -1.661145E-05  4.069574E-06  2.612282E-05 -4.521495E-07 -4.521495E-07 _shell_0000000290   
       290   7 -6.670631E-06 -1.438961E-05  1.683004E-07  2.612282E-05  4.521495E-07  4.521495E-07 _shell_0000000290   
       290   8 -3.689822E-06 -1.574605E-05  3.388893E-07  2.612282E-05 -4.521495E-07  4.521495E-07 _shell_0000000290   
       291   1 -4.238062E-05 -2.360975E-04 -5.798479E-06  4.129472E-05 -1.480348E-08  1.480348E-08 _shell_0000000291   
       291   2 -4.176651E-05 -2.361419E-04 -3.509298E-07  4.129472E-05  1.480348E-08  1.480348E-08 _shell_0000000291   
       291   3 -4.242503E-05 -2.445959E-04 -5.124962E-06  4.129472E-05 -1.480348E-08 -1.480348E-08 _shell_0000000291   
       291   4 -4.172210E-05 -2.445514E-04  5.298357E-07  4.129472E-05  1.480348E-08 -1.480348E-08 _shell_0000000291   
       291   5 -4.238062E-05 -2.360975E-04 -5.798479E-06  4.129472E-05  1.480348E-08 -1.480348E-08 _shell_0000000291   
       291   6 -4.176651E-05 -2.361419E-04 -3.509298E-07  4.129472E-05 -1.480348E-08 -1.480348E-08 _shell_0000000291   
       291   7 -4.242503E-05 -2.445959E-04 -5.124962E-06  4.129472E-05  1.480348E-08  1.480348E-08 _shell_0000000291   
       291   8 -4.172210E-05 -2.445514E-04  5.298357E-07  4.129472E-05 -1.480348E-08  1.480348E-08 _shell_0000000291   