# vtk DataFile Version 3.0
Results from optimization
ASCII
DATASET UNSTRUCTURED_GRID

POINTS 3131 float
0.0 0.0 0.0 0.0 30.0 0.0 
100.0 0.0 0.0 100.0 30.0 0.0 
0.0 1.0 0.0 0.0 2.0 0.0 
0.0 3.0 0.0 0.0 4.0 0.0 
0.0 5.0 0.0 0.0 6.0 0.0 
0.0 7.0 0.0 0.0 8.0 0.0 
0.0 9.0 0.0 0.0 10.0 0.0 
0.0 11.0 0.0 0.0 12.0 0.0 
0.0 13.0 0.0 0.0 14.0 0.0 
0.0 15.0 0.0 0.0 16.0 0.0 
0.0 17.0 0.0 0.0 18.0 0.0 
0.0 19.0 0.0 0.0 20.0 0.0 
0.0 21.0 0.0 0.0 22.0 0.0 
0.0 23.0 0.0 0.0 24.0 0.0 
0.0 25.0 0.0 0.0 26.0 0.0 
0.0 27.0 0.0 0.0 28.0 0.0 
0.0 29.0 0.0 1.0 0.0 0.0 
2.0 0.0 0.0 3.0 0.0 0.0 
4.0 0.0 0.0 5.0 0.0 0.0 
6.0 0.0 0.0 7.0 0.0 0.0 
8.0 0.0 0.0 9.0 0.0 0.0 
10.0 0.0 0.0 11.0 0.0 0.0 
12.0 0.0 0.0 13.0 0.0 0.0 
14.0 0.0 0.0 15.0 0.0 0.0 
16.0 0.0 0.0 17.0 0.0 0.0 
18.0 0.0 0.0 19.0 0.0 0.0 
20.0 0.0 0.0 21.0 0.0 0.0 
22.0 0.0 0.0 23.0 0.0 0.0 
24.0 0.0 0.0 25.0 0.0 0.0 
26.0 0.0 0.0 27.0 0.0 0.0 
28.0 0.0 0.0 29.0 0.0 0.0 
30.0 0.0 0.0 31.0 0.0 0.0 
32.0 0.0 0.0 33.0 0.0 0.0 
34.0 0.0 0.0 35.0 0.0 0.0 
36.0 0.0 0.0 37.0 0.0 0.0 
38.0 0.0 0.0 39.0 0.0 0.0 
40.0 0.0 0.0 41.0 0.0 0.0 
42.0 0.0 0.0 43.0 0.0 0.0 
44.0 0.0 0.0 45.0 0.0 0.0 
46.0 0.0 0.0 47.0 0.0 0.0 
48.0 0.0 0.0 49.0 0.0 0.0 
50.0 0.0 0.0 51.0 0.0 0.0 
52.0 0.0 0.0 53.0 0.0 0.0 
54.0 0.0 0.0 55.0 0.0 0.0 
56.0 0.0 0.0 57.0 0.0 0.0 
58.0 0.0 0.0 59.0 0.0 0.0 
60.0 0.0 0.0 61.0 0.0 0.0 
62.0 0.0 0.0 63.0 0.0 0.0 
64.0 0.0 0.0 65.0 0.0 0.0 
66.0 0.0 0.0 67.0 0.0 0.0 
68.0 0.0 0.0 69.0 0.0 0.0 
70.0 0.0 0.0 71.0 0.0 0.0 
72.0 0.0 0.0 73.0 0.0 0.0 
74.0 0.0 0.0 75.0 0.0 0.0 
76.0 0.0 0.0 77.0 0.0 0.0 
78.0 0.0 0.0 79.0 0.0 0.0 
80.0 0.0 0.0 81.0 0.0 0.0 
82.0 0.0 0.0 83.0 0.0 0.0 
84.0 0.0 0.0 85.0 0.0 0.0 
86.0 0.0 0.0 87.0 0.0 0.0 
88.0 0.0 0.0 89.0 0.0 0.0 
90.0 0.0 0.0 91.0 0.0 0.0 
92.0 0.0 0.0 93.0 0.0 0.0 
94.0 0.0 0.0 95.0 0.0 0.0 
96.0 0.0 0.0 97.0 0.0 0.0 
98.0 0.0 0.0 99.0 0.0 0.0 
100.0 1.0 0.0 100.0 2.0 0.0 
100.0 3.0 0.0 100.0 4.0 0.0 
100.0 5.0 0.0 100.0 6.0 0.0 
100.0 7.0 0.0 100.0 8.0 0.0 
100.0 9.0 0.0 100.0 10.0 0.0 
100.0 11.0 0.0 100.0 12.0 0.0 
100.0 13.0 0.0 100.0 14.0 0.0 
100.0 15.0 0.0 100.0 16.0 0.0 
100.0 17.0 0.0 100.0 18.0 0.0 
100.0 19.0 0.0 100.0 20.0 0.0 
100.0 21.0 0.0 100.0 22.0 0.0 
100.0 23.0 0.0 100.0 24.0 0.0 
100.0 25.0 0.0 100.0 26.0 0.0 
100.0 27.0 0.0 100.0 28.0 0.0 
100.0 29.0 0.0 1.0 30.0 0.0 
2.0 30.0 0.0 3.0 30.0 0.0 
4.0 30.0 0.0 5.0 30.0 0.0 
6.0 30.0 0.0 7.0 30.0 0.0 
8.0 30.0 0.0 9.0 30.0 0.0 
10.0 30.0 0.0 11.0 30.0 0.0 
12.0 30.0 0.0 13.0 30.0 0.0 
14.0 30.0 0.0 15.0 30.0 0.0 
16.0 30.0 0.0 17.0 30.0 0.0 
18.0 30.0 0.0 19.0 30.0 0.0 
20.0 30.0 0.0 21.0 30.0 0.0 
22.0 30.0 0.0 23.0 30.0 0.0 
24.0 30.0 0.0 25.0 30.0 0.0 
26.0 30.0 0.0 27.0 30.0 0.0 
28.0 30.0 0.0 29.0 30.0 0.0 
30.0 30.0 0.0 31.0 30.0 0.0 
32.0 30.0 0.0 33.0 30.0 0.0 
34.0 30.0 0.0 35.0 30.0 0.0 
36.0 30.0 0.0 37.0 30.0 0.0 
38.0 30.0 0.0 39.0 30.0 0.0 
40.0 30.0 0.0 41.0 30.0 0.0 
42.0 30.0 0.0 43.0 30.0 0.0 
44.0 30.0 0.0 45.0 30.0 0.0 
46.0 30.0 0.0 47.0 30.0 0.0 
48.0 30.0 0.0 49.0 30.0 0.0 
50.0 30.0 0.0 51.0 30.0 0.0 
52.0 30.0 0.0 53.0 30.0 0.0 
54.0 30.0 0.0 55.0 30.0 0.0 
56.0 30.0 0.0 57.0 30.0 0.0 
58.0 30.0 0.0 59.0 30.0 0.0 
60.0 30.0 0.0 61.0 30.0 0.0 
62.0 30.0 0.0 63.0 30.0 0.0 
64.0 30.0 0.0 65.0 30.0 0.0 
66.0 30.0 0.0 67.0 30.0 0.0 
68.0 30.0 0.0 69.0 30.0 0.0 
70.0 30.0 0.0 71.0 30.0 0.0 
72.0 30.0 0.0 73.0 30.0 0.0 
74.0 30.0 0.0 75.0 30.0 0.0 
76.0 30.0 0.0 77.0 30.0 0.0 
78.0 30.0 0.0 79.0 30.0 0.0 
80.0 30.0 0.0 81.0 30.0 0.0 
82.0 30.0 0.0 83.0 30.0 0.0 
84.0 30.0 0.0 85.0 30.0 0.0 
86.0 30.0 0.0 87.0 30.0 0.0 
88.0 30.0 0.0 89.0 30.0 0.0 
90.0 30.0 0.0 91.0 30.0 0.0 
92.0 30.0 0.0 93.0 30.0 0.0 
94.0 30.0 0.0 95.0 30.0 0.0 
96.0 30.0 0.0 97.0 30.0 0.0 
98.0 30.0 0.0 99.0 30.0 0.0 
16.0 1.0 0.0 22.0 1.0 0.0 
28.0 1.0 0.0 34.0 1.0 0.0 
40.0 1.0 0.0 46.0 1.0 0.0 
52.0 1.0 0.0 58.0 1.0 0.0 
64.0 1.0 0.0 70.0 1.0 0.0 
76.0 1.0 0.0 82.0 1.0 0.0 
15.0 29.0 0.0 20.0 29.0 0.0 
25.0 29.0 0.0 30.0 29.0 0.0 
35.0 29.0 0.0 40.0 29.0 0.0 
45.0 29.0 0.0 50.0 29.0 0.0 
55.0 29.0 0.0 60.0 29.0 0.0 
65.0 29.0 0.0 70.0 29.0 0.0 
75.0 29.0 0.0 80.0 29.0 0.0 
99.0 13.0 0.0 85.0 29.0 0.0 
1.0 12.0 0.0 1.0 18.0 0.0 
99.0 18.0 0.0 88.0 1.0 0.0 
8.99999999994914 0.999999999973743 0.0 99.0 8.0 0.0 
8.0 29.0 0.0 89.0 29.0 0.0 
99.0 22.0 0.0 0.999995859328856 6.99995963616369 0.0 
1.0 23.0 0.0 93.0 1.0 0.0 
93.0 29.0 0.0 4.99897846844128 0.999401131561401 0.0 
99.0 4.0 0.0 99.0 25.0 0.0 
4.0 29.0 0.0 0.998018130894958 3.99456365118287 0.0 
96.0 29.0 0.0 1.0 27.0 0.0 
2.98755098591844 0.99220568858159 0.0 13.0 1.0 0.0 
97.0 1.0 0.0 99.0 27.0 0.0 
0.999999999429266 9.99999999116626 0.0 1.0 16.0 0.0 
20.0 1.0 0.0 26.0 1.0 0.0 
32.0 1.0 0.0 38.0 1.0 0.0 
44.0 1.0 0.0 50.0 1.0 0.0 
56.0 1.0 0.0 62.0 1.0 0.0 
68.0 1.0 0.0 74.0 1.0 0.0 
80.0 1.0 0.0 86.0 1.0 0.0 
99.0 15.0 0.0 10.0 29.0 0.0 
17.0 29.0 0.0 22.0 29.0 0.0 
27.0 29.0 0.0 32.0 29.0 0.0 
37.0 29.0 0.0 42.0 29.0 0.0 
47.0 29.0 0.0 52.0 29.0 0.0 
57.0 29.0 0.0 62.0 29.0 0.0 
67.0 29.0 0.0 72.0 29.0 0.0 
77.0 29.0 0.0 82.0 29.0 0.0 
0.982043965477184 1.98304218642421 0.0 1.0 29.0 0.0 
99.0 1.0 0.0 99.0 29.0 0.0 
0.983223912217958 0.987621281485569 0.0 0.999949380687591 5.99961944502072 0.0 
0.999999970537249 8.99999955168247 0.0 1.0 14.0 0.0 
1.0 20.0 0.0 1.0 22.0 0.0 
1.0 25.0 0.0 6.99998134409618 0.99999175922936 0.0 
10.9999999999491 0.999999999973743 0.0 15.0 1.0 0.0 
18.0 1.0 0.0 24.0 1.0 0.0 
30.0 1.0 0.0 36.0 1.0 0.0 
42.0 1.0 0.0 48.0 1.0 0.0 
54.0 1.0 0.0 60.0 1.0 0.0 
66.0 1.0 0.0 72.0 1.0 0.0 
78.0 1.0 0.0 84.0 1.0 0.0 
90.0 1.0 0.0 92.0 1.0 0.0 
95.0 1.0 0.0 99.0 2.0 0.0 
99.0 5.0 0.0 99.0 6.0 0.0 
99.0 9.0 0.0 99.0 10.0 0.0 
99.0 11.0 0.0 99.0 16.0 0.0 
99.0 19.0 0.0 99.0 20.0 0.0 
99.0 23.0 0.0 2.0 29.0 0.0 
5.0 29.0 0.0 6.0 29.0 0.0 
11.0 29.0 0.0 12.0 29.0 0.0 
13.0 29.0 0.0 18.0 29.0 0.0 
23.0 29.0 0.0 28.0 29.0 0.0 
33.0 29.0 0.0 38.0 29.0 0.0 
43.0 29.0 0.0 48.0 29.0 0.0 
53.0 29.0 0.0 58.0 29.0 0.0 
63.0 29.0 0.0 68.0 29.0 0.0 
73.0 29.0 0.0 78.0 29.0 0.0 
83.0 29.0 0.0 86.0 29.0 0.0 
87.0 29.0 0.0 90.0 29.0 0.0 
91.0 29.0 0.0 94.0 29.0 0.0 
97.0 29.0 0.0 16.0 2.0 0.0 
22.0 28.0 0.0 27.0 28.0 0.0 
52.0 28.0 0.0 57.0 28.0 0.0 
82.0 28.0 0.0 32.0 28.0 0.0 
37.0 28.0 0.0 62.0 28.0 0.0 
67.0 28.0 0.0 42.0 28.0 0.0 
72.0 28.0 0.0 98.0 15.0 0.0 
12.0 28.0 0.0 98.0 19.0 0.0 
89.0 28.0 0.0 98.0 10.0 0.0 
1.99999999531953 9.999999928767 0.0 93.0 2.0 0.0 
2.0 23.0 0.0 98.0 22.0 0.0 
93.0 28.0 0.0 1.99998433821395 6.9998796865685 0.0 
98.0 5.0 0.0 5.0 28.0 0.0 
85.0 28.0 0.0 96.0 28.0 0.0 
1.98413137230705 0.988341966066793 0.0 0.993390117123437 2.98985247870427 0.0 
0.999537928146093 4.99813727245904 0.0 0.999998442801018 7.99998651096591 0.0 
0.999999999636129 10.9999999944437 0.0 1.0 13.0 0.0 
1.0 15.0 0.0 1.0 17.0 0.0 
1.0 19.0 0.0 1.0 21.0 0.0 
1.0 24.0 0.0 1.0 26.0 0.0 
1.0 28.0 0.0 3.99605406296194 0.997383435909015 0.0 
5.99977465143194 0.999865295129002 0.0 7.9999965299808 0.999998450318377 0.0 
9.99999999988557 0.999999999940923 0.0 11.9999999999936 0.999999999996718 0.0 
14.0 1.0 0.0 17.0 1.0 0.0 
19.0 1.0 0.0 21.0 1.0 0.0 
23.0 1.0 0.0 25.0 1.0 0.0 
27.0 1.0 0.0 29.0 1.0 0.0 
31.0 1.0 0.0 33.0 1.0 0.0 
35.0 1.0 0.0 37.0 1.0 0.0 
39.0 1.0 0.0 41.0 1.0 0.0 
43.0 1.0 0.0 45.0 1.0 0.0 
47.0 1.0 0.0 49.0 1.0 0.0 
51.0 1.0 0.0 53.0 1.0 0.0 
55.0 1.0 0.0 57.0 1.0 0.0 
59.0 1.0 0.0 61.0 1.0 0.0 
63.0 1.0 0.0 65.0 1.0 0.0 
67.0 1.0 0.0 69.0 1.0 0.0 
71.0 1.0 0.0 73.0 1.0 0.0 
75.0 1.0 0.0 77.0 1.0 0.0 
79.0 1.0 0.0 81.0 1.0 0.0 
83.0 1.0 0.0 85.0 1.0 0.0 
87.0 1.0 0.0 89.0 1.0 0.0 
91.0 1.0 0.0 94.0 1.0 0.0 
96.0 1.0 0.0 98.0 1.0 0.0 
99.0 3.0 0.0 99.0 7.0 0.0 
99.0 12.0 0.0 99.0 14.0 0.0 
99.0 17.0 0.0 99.0 21.0 0.0 
99.0 24.0 0.0 99.0 26.0 0.0 
99.0 28.0 0.0 3.0 29.0 0.0 
7.0 29.0 0.0 9.0 29.0 0.0 
14.0 29.0 0.0 16.0 29.0 0.0 
19.0 29.0 0.0 21.0 29.0 0.0 
24.0 29.0 0.0 26.0 29.0 0.0 
29.0 29.0 0.0 31.0 29.0 0.0 
34.0 29.0 0.0 36.0 29.0 0.0 
39.0 29.0 0.0 41.0 29.0 0.0 
44.0 29.0 0.0 46.0 29.0 0.0 
49.0 29.0 0.0 51.0 29.0 0.0 
54.0 29.0 0.0 56.0 29.0 0.0 
59.0 29.0 0.0 61.0 29.0 0.0 
64.0 29.0 0.0 66.0 29.0 0.0 
69.0 29.0 0.0 71.0 29.0 0.0 
74.0 29.0 0.0 76.0 29.0 0.0 
79.0 29.0 0.0 81.0 29.0 0.0 
84.0 29.0 0.0 88.0 29.0 0.0 
92.0 29.0 0.0 95.0 29.0 0.0 
98.0 29.0 0.0 98.0 8.0 0.0 
10.0 28.0 0.0 86.0 28.0 0.0 
90.0 28.0 0.0 22.0 2.0 0.0 
28.0 2.0 0.0 34.0 2.0 0.0 
40.0 2.0 0.0 46.0 2.0 0.0 
52.0 2.0 0.0 58.0 2.0 0.0 
64.0 2.0 0.0 70.0 2.0 0.0 
76.0 2.0 0.0 82.0 2.0 0.0 
2.0 16.0 0.0 85.0 27.0 0.0 
88.0 2.0 0.0 11.9999999999928 1.99999999999631 0.0 
89.0 27.0 0.0 8.99999961400676 1.99999982348209 0.0 
5.9997075717904 1.99979502371096 0.0 1.99934767917968 4.99734291783241 0.0 
16.0 28.0 0.0 46.0 28.0 0.0 
76.0 28.0 0.0 2.0 27.0 0.0 
3.99556896721827 1.99618513026716 0.0 97.0 2.0 0.0 
2.0 20.0 0.0 94.0 28.0 0.0 
24.0 28.0 0.0 29.0 28.0 0.0 
34.0 28.0 0.0 39.0 28.0 0.0 
54.0 28.0 0.0 59.0 28.0 0.0 
64.0 28.0 0.0 69.0 28.0 0.0 
98.0 12.0 0.0 7.0 28.0 0.0 
98.0 24.0 0.0 97.0 28.0 0.0 
20.0 2.0 0.0 26.0 2.0 0.0 
32.0 2.0 0.0 38.0 2.0 0.0 
44.0 2.0 0.0 50.0 2.0 0.0 
56.0 2.0 0.0 62.0 2.0 0.0 
68.0 2.0 0.0 74.0 2.0 0.0 
80.0 2.0 0.0 86.0 2.0 0.0 
1.99999981323511 8.99999805583899 0.0 2.0 14.0 0.0 
91.0 2.0 0.0 98.0 20.0 0.0 
18.0 28.0 0.0 48.0 28.0 0.0 
78.0 28.0 0.0 83.0 28.0 0.0 
87.0 28.0 0.0 91.0 28.0 0.0 
98.0 7.0 0.0 14.0 28.0 0.0 
20.0 28.0 0.0 25.0 28.0 0.0 
30.0 28.0 0.0 35.0 28.0 0.0 
40.0 28.0 0.0 44.0 28.0 0.0 
50.0 28.0 0.0 55.0 28.0 0.0 
60.0 28.0 0.0 65.0 28.0 0.0 
70.0 28.0 0.0 74.0 28.0 0.0 
80.0 28.0 0.0 98.0 13.0 0.0 
1.99999999996321 11.9999999994391 0.0 2.0 18.0 0.0 
98.0 17.0 0.0 98.0 18.0 0.0 
8.0 28.0 0.0 98.0 3.0 0.0 
98.0 4.0 0.0 98.0 25.0 0.0 
3.0 28.0 0.0 4.0 28.0 0.0 
1.9971839117747 3.993137435461 0.0 1.98608618048036 1.98526975763388 0.0 
14.0 2.0 0.0 98.0 26.0 0.0 
98.0 27.0 0.0 1.99983949066551 5.99923056007149 0.0 
2.0 22.0 0.0 2.0 25.0 0.0 
7.99999502590895 1.99999772908988 0.0 10.9999999997687 1.99999999988056 0.0 
15.0 2.0 0.0 18.0 2.0 0.0 
[...]
CELL_DATA 3000

SCALARS element_states float
LOOKUP_TABLE default
1 1 1 1 1 1 1 0 0 0 0 0 0 0 0 0 0 1 1 1 1 0 0 0 0 0 0 0 0 1 
0 0 0 0 0 1 0 0 1 0 0 0 1 0 0 1 1 1 0 0 0 1 0 0 0 0 1 1 1 1 
1 1 1 1 0 0 0 0 0 0 0 0 0 0 0 0 0 0 0 0 0 1 1 1 1 1 1 1 1 1 
1 1 1 1 1 1 1 1 1 1 1 1 1 1 1 1 1 1 1 1 1 1 1 1 1 1 1 1 1 1 
1 1 1 1 1 1 1 1 1 1 1 1 1 1 1 1 1 1 1 1 1 1 1 1 1 1 1 1 1 1 
1 1 1 1 1 1 1 1 1 1 1 1 1 1 1 1 1 1 1 1 1 1 1 1 1 1 1 1 1 1 
1 1 1 1 1 1 1 1 0 0 0 0 0 0 0 0 0 0 0 0 0 0 0 0 0 0 0 0 0 0 
0 0 0 1 1 1 1 1 1 1 1 1 1 1 1 1 1 1 1 1 1 1 1 1 1 1 1 1 1 1 
1 1 1 1 1 1 1 1 1 1 1 1 1 1 1 1 1 1 1 1 1 1 1 1 1 1 1 1 1 1 
1 1 1 1 1 1 1 1 1 1 1 1 1 1 1 1 1 1 1 1 0 0 0 0 0 0 0 0 0 0 
0 0 0 0 0 0 0 0 0 0 0 1 1 1 1 1 1 1 1 1 1 1 1 1 1 0 0 0 1 1 
1 1 1 0 1 1 1 1 1 1 0 1 1 1 1 1 1 1 1 1 0 0 1 1 1 1 1 1 1 1 
1 1 1 0 0 0 0 0 0 0 0 0 0 1 1 1 1 1 1 1 1 1 1 1 1 1 1 1 1 1 
1 1 1 1 1 1 1 1 1 1 1 0 0 0 0 0 0 1 1 1 1 1 0 1 1 1 1 1 1 0 
1 1 0 0 1 0 0 0 1 0 0 0 0 0 0 0 0 0 0 0 0 0 0 0 0 1 1 1 1 1 
1 1 1 1 1 1 1 1 1 1 1 1 1 1 1 1 1 1 1 1 1 1 1 1 1 1 1 1 1 1 
1 1 1 1 1 1 1 1 1 1 1 1 1 1 1 1 1 1 1 1 1 1 1 1 1 1 1 1 1 1 
1 1 1 1 1 1 1 1 1 1 1 1 1 1 1 1 1 1 1 0 0 0 0 0 0 1 1 1 1 1 
1 1 1 1 1 1 1 1 1 1 1 1 1 0 0 0 0 0 1 1 0 0 0 0 0 0 0 0 0 0 
1 1 1 0 0 1 1 0 0 0 0 0 1 1 1 0 0 0 0 0 0 1 1 1 1 1 1 1 1 1 
1 1 1 0 0 0 0 0 1 1 0 0 1 1 1 1 0 1 1 0 0 1 1 1 1 0 0 0 0 1 
0 0 0 0 0 0 0 1 1 1 1 1 1 1 1 1 1 1 1 1 1 1 1 1 1 1 1 1 1 1 
1 1 1 1 1 1 0 0 1 1 1 1 1 1 1 1 1 1 1 1 0 0 0 0 0 0 0 1 0 0 
0 0 1 0 1 1 1 1 1 0 1 1 0 1 0 0 0 1 1 1 1 1 1 1 1 1 1 1 1 1 
1 1 1 1 0 0 0 0 0 0 0 1 1 1 1 1 1 1 1 1 1 1 1 1 1 1 1 1 1 1 
1 1 1 1 1 1 1 1 1 1 1 1 1 1 0 0 0 0 0 0 0 0 0 0 0 0 0 0 0 0 
0 0 0 0 0 0 0 0 0 0 0 0 0 0 0 0 0 0 0 0 0 0 1 0 1 1 1 1 1 1 
1 1 0 0 0 1 0 0 0 0 0 1 1 1 1 1 1 1 1 1 1 1 1 1 1 1 1 0 0 0 
1 1 1 0 0 1 1 1 1 1 1 1 0 0 0 0 0 0 0 0 0 0 0 0 0 1 1 1 1 1 
1 1 1 1 0 0 0 0 1 1 1 1 1 1 0 1 1 1 0 0 0 0 0 0 1 1 1 1 1 1 
0 0 0 0 1 1 1 0 0 0 0 1 0 1 0 1 1 1 1 1 1 0 0 1 1 1 1 1 0 0 
1 1 0 1 1 0 0 1 1 1 1 1 1 1 1 1 1 0 0 0 0 0 0 0 0 0 0 0 0 0 
0 0 0 0 0 0 0 1 1 1 1 1 1 1 1 1 1 1 1 1 1 1 1 1 1 1 1 1 0 1 
0 1 1 1 1 0 0 0 1 1 1 1 1 0 0 0 0 0 1 0 0 0 0 1 1 0 0 0 0 0 
1 1 0 0 0 0 0 0 1 0 1 0 0 0 1 1 0 1 1 1 0 0 0 1 0 1 1 1 1 1 
1 1 1 1 1 1 1 0 0 0 0 0 0 1 1 0 0 0 0 1 1 1 1 1 1 1 1 1 0 0 
0 0 0 0 0 1 0 0 1 1 1 0 0 0 0 1 1 1 1 1 1 0 0 0 0 0 0 0 0 0 
0 0 0 0 0 1 1 1 0 0 0 0 1 0 1 1 1 0 1 1 1 1 1 1 0 0 0 0 1 0 
0 0 1 1 0 0 1 1 1 0 0 1 0 1 0 0 0 0 1 1 0 0 1 0 1 1 1 1 0 0 
0 1 0 1 1 1 1 0 0 1 0 1 0 0 1 1 0 0 1 1 1 1 0 0 0 0 0 0 1 0 
1 0 1 1 0 1 1 1 1 1 1 1 0 0 0 0 0 0 0 0 0 0 0 0 0 0 1 0 0 1 
1 1 0 1 0 1 0 1 1 0 0 0 0 0 0 1 1 1 0 0 0 1 1 0 0 1 1 1 1 1 
1 1 0 0 1 1 1 1 1 0 1 0 1 0 0 1 0 1 0 1 1 0 0 0 1 1 0 0 0 0 
0 0 1 1 1 0 1 1 0 0 1 1 1 1 1 1 1 0 0 1 1 0 0 0 0 0 1 1 1 0 
0 0 0 0 0 0 1 0 1 0 0 0 1 1 0 0 1 1 1 1 1 1 0 1 1 1 1 0 0 0 
0 0 0 1 1 1 0 0 0 0 0 0 0 1 0 0 0 0 0 0 1 1 1 1 1 1 1 1 0 0 
0 0 1 1 0 0 1 1 0 0 0 0 1 1 1 1 1 1 0 0 0 0 0 0 0 0 1 1 1 0 
1 0 0 0 0 1 1 0 1 1 0 1 1 1 1 0 0 0 0 1 1 1 1 0 0 0 0 0 0 1 
1 1 1 1 1 0 0 0 0 0 0 0 1 1 1 0 0 0 1 1 0 0 0 1 1 0 0 0 0 0 
0 0 0 0 1 1 1 1 0 1 1 0 1 0 0 1 1 0 0 1 1 1 0 0 0 0 1 1 0 0 
0 1 1 1 1 0 0 0 1 1 1 1 1 1 1 0 0 0 0 1 1 0 0 1 0 0 0 0 1 1 
0 0 0 1 0 0 1 0 0 0 0 0 1 1 1 0 0 1 1 1 0 1 0 0 0 1 0 1 0 1 
0 0 1 1 1 1 0 0 1 0 0 0 1 1 1 0 1 1 0 1 1 0 0 0 1 1 0 0 1 1 
0 0 0 0 0 0 0 0 0 0 0 1 1 1 0 0 1 0 0 0 0 1 1 1 1 1 0 0 0 0 
0 0 1 1 0 0 0 0 0 0 0 0 1 1 1 1 0 0 0 0 0 1 1 1 1 1 0 0 0 0 
0 0 0 0 0 0 0 0 1 0 0 1 1 1 0 1 1 0 0 1 1 0 0 1 0 0 0 1 1 0 
0 0 1 0 1 0 0 1 0 0 1 1 0 1 1 0 0 1 1 0 0 1 0 1 0 0 0 1 1 1 
0 0 0 0 1 1 0 1 1 1 0 0 0 0 0 0 1 0 0 0 1 0 0 0 0 1 1 1 0 0 
0 0 1 0 0 0 0 1 1 0 0 0 0 1 1 0 0 0 1 1 1 1 1 0 0 0 0 1 0 0 
0 0 1 1 1 0 0 1 1 1 1 1 0 0 0 0 1 0 0 0 0 0 0 0 1 0 0 0 0 0 
0 0 0 0 0 0 1 0 1 0 1 1 0 0 0 0 0 0 0 0 1 0 0 0 0 0 1 0 0 1 
1 1 0 1 1 1 1 0 0 0 0 0 0 0 1 1 1 1 0 0 0 0 0 0 0 0 0 0 0 0 
0 0 1 1 1 1 1 0 0 1 1 0 0 0 0 0 0 0 0 0 0 0 0 1 1 1 0 0 0 1 
0 0 0 0 0 0 1 0 0 1 1 0 0 0 0 1 1 0 0 0 0 0 1 0 0 0 0 1 1 0 
0 0 0 0 0 0 0 0 0 0 1 1 0 0 1 0 0 0 0 0 0 1 1 1 0 0 1 1 1 0 
1 0 0 1 1 0 0 0 0 0 0 0 1 0 0 0 0 1 0 0 1 1 0 1 1 0 0 0 0 0 
0 0 0 0 0 0 1 1 1 1 1 0 0 0 1 1 0 0 0 0 0 0 0 0 1 0 0 0 0 1 
0 0 0 0 1 0 1 1 0 0 0 0 0 0 0 0 0 1 0 0 1 0 0 0 0 0 1 1 1 0 
0 0 0 0 1 0 0 0 0 0 1 1 0 0 0 0 0 0 0 0 0 1 1 1 1 0 0 0 1 0 
0 0 0 0 0 0 0 0 0 0 0 0 1 1 0 0 0 0 0 0 0 0 1 0 0 0 0 0 0 0 
1 0 0 1 0 0 0 1 1 1 1 1 1 0 0 0 0 0 0 0 0 0 0 0 0 1 1 1 1 1 
0 0 0 0 0 1 1 0 0 0 1 1 0 0 0 0 0 0 1 1 0 0 0 0 0 0 1 0 0 0 
1 0 0 1 0 0 0 0 0 0 0 0 0 0 0 0 1 0 0 0 1 1 0 1 0 0 1 1 0 1 
0 0 0 0 0 0 0 0 0 0 0 0 0 0 0 0 0 0 0 0 1 0 0 0 1 0 0 0 0 0 
0 0 0 0 1 1 1 1 1 1 1 1 0 0 1 1 1 1 0 0 0 1 0 1 0 0 0 0 0 1 
0 1 1 0 1 0 0 1 1 0 0 0 0 0 0 0 0 0 0 0 0 0 0 1 1 0 0 0 0 0 
0 1 1 0 0 1 0 0 0 0 0 0 0 0 0 0 0 0 0 0 1 0 0 0 0 0 0 1 0 0 
0 0 1 1 1 0 0 0 0 0 0 1 1 0 0 0 0 0 0 0 1 1 1 0 0 0 0 1 0 0 
0 0 0 0 1 1 1 0 0 1 0 0 0 0 0 0 0 0 0 0 0 1 1 1 1 0 0 1 0 0 
0 0 0 1 1 0 0 0 0 0 1 1 0 1 0 0 0 0 0 0 0 0 0 0 0 0 0 0 0 0 
1 1 1 0 0 0 0 0 0 0 0 1 0 0 0 0 0 1 1 1 0 0 1 0 0 1 1 0 0 1 
0 1 1 1 0 1 1 0 0 1 0 1 0 0 0 0 0 0 0 0 0 1 1 1 1 1 1 0 1 0 
0 1 1 1 1 1 0 1 0 0 0 0 0 0 0 0 0 1 0 0 0 0 0 0 0 1 0 0 0 0 
0 0 0 0 0 0 0 0 0 1 1 0 0 0 0 0 0 0 0 1 0 0 0 1 0 0 0 0 0 0 
0 1 0 0 0 0 0 0 0 0 0 0 0 0 0 1 1 1 0 0 0 0 0 1 1 0 0 0 1 1 
1 1 1 0 1 0 1 0 0 1 0 0 0 0 1 0 0 1 0 0 0 1 1 0 0 0 0 0 0 1 
0 1 1 0 0 0 1 0 0 1 1 0 0 0 1 1 0 0 0 0 0 0 1 0 0 0 0 0 0 0 
0 1 0 1 1 1 0 0 1 1 1 1 0 0 0 0 0 0 0 0 0 0 1 0 0 0 0 0 0 1 
0 0 0 0 1 0 1 0 0 0 1 1 1 1 0 0 1 1 1 1 1 0 0 1 0 0 0 0 0 0 
0 0 0 0 0 0 0 0 0 0 0 0 0 0 0 0 0 0 0 0 0 0 0 0 0 0 0 1 0 1 
1 1 1 0 0 0 1 1 0 0 0 1 0 0 1 1 0 0 0 0 0 0 0 0 0 0 0 0 0 0 
0 0 1 0 0 0 1 0 0 0 1 1 1 1 0 0 0 0 0 1 1 0 0 1 0 0 0 1 0 0 
1 0 1 0 0 0 0 0 1 0 0 0 0 0 0 0 0 0 1 1 0 1 0 0 0 0 0 0 0 0 
1 0 0 0 0 1 0 0 0 0 0 0 0 0 0 0 0 0 0 1 1 0 0 0 1 0 1 1 0 0 
0 0 0 0 1 1 0 0 0 1 1 0 0 0 0 0 0 0 1 1 1 1 1 1 0 1 1 0 0 0 
0 1 0 1 0 0 0 0 0 0 0 0 0 0 0 0 0 0 0 0 0 0 0 0 0 1 1 1 1 1 
1 0 0 0 0 1 1 0 1 0 0 0 0 0 0 0 0 0 0 0 0 0 0 0 0 1 0 0 0 0 
0 0 0 0 0 0 0 0 0 1 1 0 0 0 0 0 1 1 1 0 0 0 0 0 0 0 0 0 0 0 
0 0 1 0 0 0 1 1 0 0 0 0 0 0 0 0 0 0 0 0 0 0 0 0 0 0 0 1 0 0 
0 0 0 1 0 0 0 0 0 0 0 0 0 0 0 0 0 0 0 0 0 0 0 0 0 0 0 1 1 1 


SCALARS sensitivity_number float
LOOKUP_TABLE default
0.009650700334007532 0.008076189337259919 0.006636329837669859 0.008068987112785888 0.006630237738545047 0.003179617826755593 
0.0017857076071840922 2.622738693803411e-08 2.6751731282298063e-08 2.7353858401997098e-08 2.7828651207502828e-08 2.797690109876635e-08 
3.0306516887806955e-08 9.368915216559926e-11 5.28297569583258e-11 1.9657491830923574e-10 1.2104240449352622e-10 0.0031795482990099656 
0.0017853379190230546 0.0017855807389646557 0.0017857687090624377 0.000774831762437076 0.0007749285531656213 1.4354441800268337e-08 
1.444557238662447e-08 1.4377969768841524e-08 1.5124163443952903e-08 0.0020789034433926906 2.0640509255374043e-08 0.0026481326854114555 
2.3128554740461953e-08 0.0007766886518832841 0.00012037543556522858 2.5581842618681788e-08 0.000298276144545262 0.0037007865560064 
0.0017612883923805846 2.727988546621763e-08 0.002457244950103274 2.661616533790849e-08 0.0009325541294944137 0.001585243984680509 
0.0019969180350141733 2.888805095469825e-08 2.8477316689188873e-08 0.0038915195411243016 0.002181741840202756 0.0031247642680273585 
0.0004651536358424509 2.86386247927938e-08 2.7618676585001168e-08 0.0027430363220995735 2.9476551003831867e-08 3.247935575442969e-08 
3.174674772157387e-08 3.0555150717921356e-08 0.01025652418115905 0.009649295561174647 0.0066413344880751355 0.008078611320849872 
0.0053467044525876755 0.00419467200721028 0.003185177494244596 0.0017330291718162813 0.0008604841487808624 1.4796690849222404e-08 
1.7963781946197673e-08 1.6722453471698753e-08 1.941733767921734e-08 2.0779066773437035e-08 2.348986405669991e-08 2.214055324157259e-08 
2.6205435642438473e-08 2.484437572727843e-08 2.75595219699265e-08 2.8883557845595367e-08 3.017945277895584e-08 3.146120277438092e-08 
3.3538769345987776e-08 3.1597931541111206e-08 0.0008532772576198452 0.008093658232990778 0.003586974025949964 0.01728543633737503 
0.042817675780357445 0.03285261523769684 0.010411575105085079 0.01040453359057748 0.01040656712316705 0.010403451219483937 
0.010403341091808785 0.010403241246742448 0.010403313621015011 0.0104030410707946 0.010402601357423958 0.010400331620429602 
0.010401767219516463 0.010398075604271214 0.010394904099604089 0.010391114636865822 0.010387970586473153 0.010388693029869526 
0.01043483120697988 0.010400096059103374 0.01066298082771554 0.010513394288952987 0.010909133465896384 0.011258068597747752 
0.012113354135590004 0.011680771401745518 0.012746834211464747 0.012485504899568104 0.012878459231165696 0.012860351694515442 
0.012256624615537006 0.012662420276214871 0.010912954338157295 0.011657326129357546 0.010076666837218067 0.009169078969034065 
0.007192092778396652 0.008198965829444863 0.005322712014849673 0.006205517939229642 0.004602791159012678 0.004060688386208632 
0.0033162491719807958 0.003647905451268782 0.0029633203251297857 0.0030640349749438754 0.0030458674701033406 0.0033317680644971226 
0.003919447027066022 0.003775386669704575 0.003911652406129074 0.003906261190628666 0.0039125240152333325 0.003911892139803245 
0.003912134289415804 0.003912085938752521 0.003912303443819337 0.003912216410518242 0.003912404707766627 0.003912515945606165 
0.00391277337557293 0.003912638878255308 0.003913077767061326 0.003912919747488459 0.003913248091751141 0.003913430699229216 
0.003913835417942921 0.003913626530296856 0.00391429435737517 0.00391405804268645 0.003914544149609828 0.003914807742097016 
0.003915375711195756 0.003915084883072579 0.003915998409051158 0.003915680185337485 0.0039163305415605455 0.00391667614279508 
0.003917408896852784 0.003917035686167021 0.0039181966779782175 0.003917795909252554 0.003918611322888641 0.00391903983370156 
0.003919938523246584 0.003919482260064143 0.003920891958281803 0.003920408927885841 0.003921395175773447 0.003921904431929678 
0.003922380094745029 0.003922887449998308 0.003925664879420923 0.003919289524562639 0.003907472687867587 0.003334907227607952 
0.0037440335738537322 0.003868596081628611 0.02065342226678954 0.012706950684638962 0.019984228445419288 0.004768127527934373 
0.00930648222047114 0.002217951713841596 0.0009351746319754046 7.186800628952302e-09 0.0002165367556198219 6.877452184740965e-09 
6.382580876422474e-09 5.893198833244068e-09 4.5685644489989555e-09 5.271149847942251e-09 3.838735365065143e-09 3.1338950443343866e-09 
2.4825217327556226e-09 1.4040750340415964e-09 1.902227944050701e-09 9.943077172219824e-10 6.725907877923241e-10 2.6156355074502893e-10 
4.3211569860774546e-10 1.474894910694326e-10 3.5241491527921925e-11 7.622547662686252e-11 1.404879704988095e-11 4.633124686901171e-12 
1.3628806647478863e-12 5.900377311062842e-13 5.863750283979823e-13 0.045854337947690546 0.022354241615800758 0.02911948865406342 
0.018663824351665744 0.015850502736739807 0.012349968246573209 0.013808497551974296 0.011343742928255567 0.010616860866021713 
0.010000985243836543 0.009401771581144866 0.008833599812383127 0.008063862731668772 0.008373875928192505 0.00784364863778975 
0.007615028197197964 0.007312302348889854 0.006526443203876815 0.006936714598547887 0.006120826838411857 0.005752941338720435 
0.005445431145779526 0.005050617738639674 0.0052149500004341895 0.004923467980989385 0.00479050411345053 0.0046228822869792624 
0.004181803080160815 0.004414646590740652 0.003953885212065102 0.003766550468385143 0.003658110641274879 0.0038046447202330475 
0.003663664994242844 0.004063891453323275 0.004360719967785318 0.004576770258605799 0.004634725528647166 0.004662455252081677 
0.004571039422145512 0.004517015987260652 0.004471842000855011 0.004385087478561113 0.004428628862123115 0.004341533207756796 
0.004298192124069671 0.004255106357065931 0.004169746837789678 0.0042122926368079175 0.004127466915479206 0.004085452265289697 
0.0040437040216213345 0.003961014935400508 0.004002224335179781 0.003920077841083887 0.003879414041947652 0.0038390245422508574 
0.0037590710943761515 0.0037989102614995407 0.003719507524575213 0.003680219313840468 0.0036412055877513123 0.0035640279639823063 
0.003602470698827717 0.003525936126898094 0.003488248224847944 0.003451015543811638 0.0033701417456805647 0.003412862425207044 
0.0033261783595057368 0.00331992561326008 0.0034097272443191903 0.0035779034269046977 0.003536120019961411 0.0034948189567222524 
0.0032149455563053645 0.00263675362947885 0.000665614522243059 0.0019650766342604944 4.1805221716311296e-05 1.1768316799920976e-08 
5.736035250593995e-09 2.061127659348257e-09 3.2640555786427283e-09 1.3852228392305485e-09 9.878082103120984e-10 5.118957899164461e-10 
7.147976000119686e-10 3.5755260247910245e-10 2.406127091064341e-10 9.236799186906118e-11 1.5399825804089395e-10 2.5249233706500968e-11 
5.0976316087056876e-11 1.0828549477917368e-11 3.876073188498759e-12 5.869649424138361e-13 1.2608713371754936e-12 0.007372743103605366 
0.007531064939151858 0.0049135809170480944 0.004120772786836993 0.003541049441050081 0.004147984273268816 0.003998153570269494 
0.004021840955868912 0.00379457876342483 0.0036890917753912033 0.0035890507679518643 0.003485322303649843 0.003652895641338294 
0.0036080181779974303 4.745807059591117e-09 1.1439051607649454e-09 1.5608179579805219e-09 0.011147760403228292 0.009631586375243193 
0.009634471854875554 0.002554986349185345 0.00422063961607995 6.732641825074233e-11 0.016874380184257427 0.020215437668714177 
0.006638954681188198 0.005342713996297098 0.009629332974743929 0.009628320097964244 1.2916616180051285e-11 0.0071797761936190875 
0.0068977385786723995 0.003974601152815827 0.003951311858886296 0.00342203776261136 0.003286214851810829 0.008081950246437066 
0.003180000466967671 0.004189892864373951 1.4851298109075922e-08 3.361991128094746e-08 0.009630687428216335 0.00963048902601864 
0.00962992474701867 0.009624464265635591 0.009626727484106444 0.0025733801153598485 0.002573112986987944 0.0025737647471740306 
0.013413426111122293 0.00631248151829697 0.001353225290012738 0.0007986128307565173 6.7373254066386395e-09 7.210594945896431e-09 
6.1854220378690805e-09 5.512308932861099e-09 2.634054026463464e-09 2.0595663929292165e-09 8.090092621192773e-10 2.2032328618717352e-10 
1.2706433862762702e-10 0.031263318759870734 0.024875872858784356 0.014360149217930001 0.012482444423674684 0.008731566849774776 
0.009222009114630675 0.00821404526816326 0.007792940267002645 0.005266593006925864 0.005053769932350439 0.004541249365918885 
0.0043436896554018235 0.0035468155752973493 0.0034870538105475873 0.00416299844063006 0.004193197117738249 0.004065761106240281 
0.004044944952839169 0.0038382916104337268 0.003816327542370797 0.0037306334721479355 0.003709753686417399 0.0036283996272037924 
0.003608595844271796 0.003534061683696872 0.003515126400231568 0.0033063318193518464 0.003429236716706181 6.277182384608802e-09 
1.5411099411371531e-09 1.162338105477947e-09 4.803715757002806e-10 3.4164459270792985e-10 1.1496333071924072e-11 0.009621709270832541 
0.005538730704933638 0.004695339253745362 0.0038604694839388626 0.0037517311461070894 1.4567983807353483e-08 0.0036941969280343263 
0.003961141358738656 0.0036484176812042867 0.003551554493911632 0.004083147152927091 0.0033502529166371513 3.2775309532077736e-09 
0.007041093528388214 0.007370554174221602 6.570571629275759e-10 1.664983757564442e-08 0.002575758649139263 0.00011935585408572986 
3.5759846100713665e-10 1.5289372823126133e-10 0.0017858160409681809 2.179502850266753e-09 2.662981504248296e-11 6.742790107436151e-11 
0.0007749690764113662 1.7906495968143115e-08 2.0673021815775952e-08 1.9330002775878337e-08 2.3332735879213816e-08 2.201000400873153e-08 
2.466029081730514e-08 2.6005097863119716e-08 2.8714916879761317e-08 2.736275730535518e-08 3.0021641268583113e-08 3.170451232836642e-08 
0.001465310211258052 0.009195910595726081 0.004081059903959016 0.017749582126025704 0.009640740563094405 0.00963045720450133 
0.009630391895871284 0.009630241243289725 0.009619396034173326 0.009631373990570175 0.009620302908082854 0.00975367185257796 
0.009667294479110237 0.009921873700516616 0.010191573649975048 0.010900012079508015 0.010540503910079504 0.011349186397107568 
0.011182982558134841 0.011397076559557682 0.011341313684527376 0.010737333940505833 0.01113841594601436 0.009442641970180243 
0.010140762072915312 0.008723964388571514 0.008012359785011886 0.006523397339272679 0.007282798843255448 0.005052748570062838 
0.005765430985585319 0.004466562152246772 0.004015310537759816 0.003304652877004317 0.0036579831218280998 0.00267546743353625 
0.0029509585612593164 0.0025995478984198236 0.002657560916186662 0.0025864639644721486 0.0025182098499959616 0.0025845689804258397 
0.0025820004933988882 0.00258469603351515 0.0025838712564632237 0.002583148294622305 0.0025835509203071794 0.0025823882292796726 
0.002582764690554469 0.0025820158163716534 0.002581643168073778 0.002580907214801156 0.0025812728501725117 0.002580189065362719 
0.0025805466561952535 0.002579834217556395 0.002579484377017548 0.002578808392195909 0.002579141959914129 0.002578167964669727 
0.002578483727057692 0.0025778609326834443 0.002577562535659665 0.0025769911842895257 0.002577272587677179 0.0025764541483256132 
0.002576718400506161 0.0025761984602967716 0.002575951360875343 0.002575482787910208 0.002575712764671502 0.0025750486448852562 
0.002575261436856415 0.0025748445119435797 0.0025746490538343823 0.0025742843715268688 0.002574462254707516 0.0025739557837565407 
0.002574114271846017 0.002573796458320818 0.0025736902317207095 0.002541745456910645 0.002862234868804924 0.0024083300093926644 
0.0043186820234935586 0.00019240211598748426 3.9867272820033006e-09 5.501223736182874e-10 3.186504144512468e-11 1.15749924800966e-12 
4.218382550693501e-12 0.00968079199806936 0.010261251967177773 0.006556435798902909 0.0062012150957700225 0.005858850029031261 
0.004807911497766075 0.0038955759613147176 0.003715857892137146 0.00410733774693395 0.003928273134369662 0.003905459393994209 
0.003882859032284265 0.003773046372707478 0.0036686473449431376 0.003569925226884327 0.0034275777854994374 0.0026331532864555056 
0.0023027446104784584 0.0007291288652961678 3.408269963477594e-09 8.800396902776135e-10 2.341884831497043e-10 3.9942600084529134e-12 
0.007527262473753547 0.007663907443871402 1.864879611933619e-09 7.587070016411374e-10 2.421667067364165e-08 2.3733992400546188e-09 
2.3557655037437142e-09 0.0013704210860852387 0.0013734988245584613 9.804273753299467e-10 1.3769193759156288e-09 1.1146228924147746e-09 
0.008059004162706475 0.017445118413138533 0.003689822599936305 2.9582957647148773e-08 6.12988527454374e-09 0.008754810856261942 
0.009890212373373048 1.3134419776765808e-11 3.278137268904709e-11 0.001367347431500398 1.4800641493009961e-08 1.1178199632992514e-09 
0.005975631905171872 0.003332699901099887 0.0041821111820976925 3.3763764902967016e-09 1.8342071060494625e-05 1.5379289041091561e-09 
1.241908602712744e-09 5.7438483667912e-10 0.0010116651791659927 0.0015759236764140755 0.006689133561453639 0.004632234479052919 
0.003990422417890202 0.003062131334769156 0.003230506214908305 0.003268996528519485 0.0034519925246287043 0.0035438869684931403 
0.003641309467053857 0.0037355452198595076 0.0032897850374048808 5.203486141318435e-09 2.5496374752902688e-08 2.6832357243925745e-08 
1.4842019220629522e-09 1.921104671643049e-09 0.003481099704303348 0.004004577034065129 7.562151847537311e-11 1.4323518946832e-10 
0.013289950087840462 0.015532349779848895 0.005341868256738338 0.008062835565155333 3.47554727596023e-11 0.003180084302884572 
0.004189723525905144 3.2350284667917944e-08 3.166297909734726e-08 0.008058790145655113 0.008058762502032992 0.00805977675578757 
0.008063482054923327 0.001379632568114738 0.0013766028022560819 0.0013858135898872617 0.0013829182230234536 0.002490588845036932 