# vtk DataFile Version 3.0
Results from optimization
ASCII
DATASET UNSTRUCTURED_GRID

POINTS 3131 float
0.0 0.0 0.0 0.0 30.0 0.0 
100.0 0.0 0.0 100.0 30.0 0.0 
0.0 1.0 0.0 0.0 2.0 0.0 
0.0 3.0 0.0 0.0 4.0 0.0 
0.0 5.0 0.0 0.0 6.0 0.0 
0.0 7.0 0.0 0.0 8.0 0.0 
0.0 9.0 0.0 0.0 10.0 0.0 
0.0 11.0 0.0 0.0 12.0 0.0 
0.0 13.0 0.0 0.0 14.0 0.0 
0.0 15.0 0.0 0.0 16.0 0.0 
0.0 17.0 0.0 0.0 18.0 0.0 
0.0 19.0 0.0 0.0 20.0 0.0 
0.0 21.0 0.0 0.0 22.0 0.0 
0.0 23.0 0.0 0.0 24.0 0.0 
0.0 25.0 0.0 0.0 26.0 0.0 
0.0 27.0 0.0 0.0 28.0 0.0 
0.0 29.0 0.0 1.0 0.0 0.0 
2.0 0.0 0.0 3.0 0.0 0.0 
4.0 0.0 0.0 5.0 0.0 0.0 
6.0 0.0 0.0 7.0 0.0 0.0 
8.0 0.0 0.0 9.0 0.0 0.0 
10.0 0.0 0.0 11.0 0.0 0.0 
12.0 0.0 0.0 13.0 0.0 0.0 
14.0 0.0 0.0 15.0 0.0 0.0 
16.0 0.0 0.0 17.0 0.0 0.0 
18.0 0.0 0.0 19.0 0.0 0.0 
20.0 0.0 0.0 21.0 0.0 0.0 
22.0 0.0 0.0 23.0 0.0 0.0 
24.0 0.0 0.0 25.0 0.0 0.0 
26.0 0.0 0.0 27.0 0.0 0.0 
28.0 0.0 0.0 29.0 0.0 0.0 
30.0 0.0 0.0 31.0 0.0 0.0 
32.0 0.0 0.0 33.0 0.0 0.0 
34.0 0.0 0.0 35.0 0.0 0.0 
36.0 0.0 0.0 37.0 0.0 0.0 
38.0 0.0 0.0 39.0 0.0 0.0 
40.0 0.0 0.0 41.0 0.0 0.0 
42.0 0.0 0.0 43.0 0.0 0.0 
44.0 0.0 0.0 45.0 0.0 0.0 
46.0 0.0 0.0 47.0 0.0 0.0 
48.0 0.0 0.0 49.0 0.0 0.0 
50.0 0.0 0.0 51.0 0.0 0.0 
52.0 0.0 0.0 53.0 0.0 0.0 
54.0 0.0 0.0 55.0 0.0 0.0 
56.0 0.0 0.0 57.0 0.0 0.0 
58.0 0.0 0.0 59.0 0.0 0.0 
60.0 0.0 0.0 61.0 0.0 0.0 
62.0 0.0 0.0 63.0 0.0 0.0 
64.0 0.0 0.0 65.0 0.0 0.0 
66.0 0.0 0.0 67.0 0.0 0.0 
68.0 0.0 0.0 69.0 0.0 0.0 
70.0 0.0 0.0 71.0 0.0 0.0 
72.0 0.0 0.0 73.0 0.0 0.0 
74.0 0.0 0.0 75.0 0.0 0.0 
76.0 0.0 0.0 77.0 0.0 0.0 
78.0 0.0 0.0 79.0 0.0 0.0 
80.0 0.0 0.0 81.0 0.0 0.0 
82.0 0.0 0.0 83.0 0.0 0.0 
84.0 0.0 0.0 85.0 0.0 0.0 
86.0 0.0 0.0 87.0 0.0 0.0 
88.0 0.0 0.0 89.0 0.0 0.0 
90.0 0.0 0.0 91.0 0.0 0.0 
92.0 0.0 0.0 93.0 0.0 0.0 
94.0 0.0 0.0 95.0 0.0 0.0 
96.0 0.0 0.0 97.0 0.0 0.0 
98.0 0.0 0.0 99.0 0.0 0.0 
100.0 1.0 0.0 100.0 2.0 0.0 
100.0 3.0 0.0 100.0 4.0 0.0 
100.0 5.0 0.0 100.0 6.0 0.0 
100.0 7.0 0.0 100.0 8.0 0.0 
100.0 9.0 0.0 100.0 10.0 0.0 
100.0 11.0 0.0 100.0 12.0 0.0 
100.0 13.0 0.0 100.0 14.0 0.0 
100.0 15.0 0.0 100.0 16.0 0.0 
100.0 17.0 0.0 100.0 18.0 0.0 
100.0 19.0 0.0 100.0 20.0 0.0 
100.0 21.0 0.0 100.0 22.0 0.0 
100.0 23.0 0.0 100.0 24.0 0.0 
100.0 25.0 0.0 100.0 26.0 0.0 
100.0 27.0 0.0 100.0 28.0 0.0 
100.0 29.0 0.0 1.0 30.0 0.0 
2.0 30.0 0.0 3.0 30.0 0.0 
4.0 30.0 0.0 5.0 30.0 0.0 
6.0 30.0 0.0 7.0 30.0 0.0 
8.0 30.0 0.0 9.0 30.0 0.0 
10.0 30.0 0.0 11.0 30.0 0.0 
12.0 30.0 0.0 13.0 30.0 0.0 
14.0 30.0 0.0 15.0 30.0 0.0 
16.0 30.0 0.0 17.0 30.0 0.0 
18.0 30.0 0.0 19.0 30.0 0.0 
20.0 30.0 0.0 21.0 30.0 0.0 
22.0 30.0 0.0 23.0 30.0 0.0 
24.0 30.0 0.0 25.0 30.0 0.0 
26.0 30.0 0.0 27.0 30.0 0.0 
28.0 30.0 0.0 29.0 30.0 0.0 
30.0 30.0 0.0 31.0 30.0 0.0 
32.0 30.0 0.0 33.0 30.0 0.0 
34.0 30.0 0.0 35.0 30.0 0.0 
36.0 30.0 0.0 37.0 30.0 0.0 
38.0 30.0 0.0 39.0 30.0 0.0 
40.0 30.0 0.0 41.0 30.0 0.0 
42.0 30.0 0.0 43.0 30.0 0.0 
44.0 30.0 0.0 45.0 30.0 0.0 
46.0 30.0 0.0 47.0 30.0 0.0 
48.0 30.0 0.0 49.0 30.0 0.0 
50.0 30.0 0.0 51.0 30.0 0.0 
52.0 30.0 0.0 53.0 30.0 0.0 
54.0 30.0 0.0 55.0 30.0 0.0 
56.0 30.0 0.0 57.0 30.0 0.0 
58.0 30.0 0.0 59.0 30.0 0.0 
60.0 30.0 0.0 61.0 30.0 0.0 
62.0 30.0 0.0 63.0 30.0 0.0 
64.0 30.0 0.0 65.0 30.0 0.0 
66.0 30.0 0.0 67.0 30.0 0.0 
68.0 30.0 0.0 69.0 30.0 0.0 
70.0 30.0 0.0 71.0 30.0 0.0 
72.0 30.0 0.0 73.0 30.0 0.0 
74.0 30.0 0.0 75.0 30.0 0.0 
76.0 30.0 0.0 77.0 30.0 0.0 
78.0 30.0 0.0 79.0 30.0 0.0 
80.0 30.0 0.0 81.0 30.0 0.0 
82.0 30.0 0.0 83.0 30.0 0.0 
84.0 30.0 0.0 85.0 30.0 0.0 
86.0 30.0 0.0 87.0 30.0 0.0 
88.0 30.0 0.0 89.0 30.0 0.0 
90.0 30.0 0.0 91.0 30.0 0.0 
92.0 30.0 0.0 93.0 30.0 0.0 
94.0 30.0 0.0 95.0 30.0 0.0 
96.0 30.0 0.0 97.0 30.0 0.0 
98.0 30.0 0.0 99.0 30.0 0.0 
16.0 1.0 0.0 22.0 1.0 0.0 
28.0 1.0 0.0 34.0 1.0 0.0 
40.0 1.0 0.0 46.0 1.0 0.0 
52.0 1.0 0.0 58.0 1.0 0.0 
64.0 1.0 0.0 70.0 1.0 0.0 
76.0 1.0 0.0 82.0 1.0 0.0 
15.0 29.0 0.0 20.0 29.0 0.0 
25.0 29.0 0.0 30.0 29.0 0.0 
35.0 29.0 0.0 40.0 29.0 0.0 
45.0 29.0 0.0 50.0 29.0 0.0 
55.0 29.0 0.0 60.0 29.0 0.0 
65.0 29.0 0.0 70.0 29.0 0.0 
75.0 29.0 0.0 80.0 29.0 0.0 
99.0 13.0 0.0 85.0 29.0 0.0 
1.0 12.0 0.0 1.0 18.0 0.0 
99.0 18.0 0.0 88.0 1.0 0.0 
8.99999999994914 0.999999999973743 0.0 99.0 8.0 0.0 
8.0 29.0 0.0 89.0 29.0 0.0 
99.0 22.0 0.0 0.999995859328856 6.99995963616369 0.0 
1.0 23.0 0.0 93.0 1.0 0.0 
93.0 29.0 0.0 4.99897846844128 0.999401131561401 0.0 
99.0 4.0 0.0 99.0 25.0 0.0 
4.0 29.0 0.0 0.998018130894958 3.99456365118287 0.0 
96.0 29.0 0.0 1.0 27.0 0.0 
2.98755098591844 0.99220568858159 0.0 13.0 1.0 0.0 
97.0 1.0 0.0 99.0 27.0 0.0 
0.999999999429266 9.99999999116626 0.0 1.0 16.0 0.0 
20.0 1.0 0.0 26.0 1.0 0.0 
32.0 1.0 0.0 38.0 1.0 0.0 
44.0 1.0 0.0 50.0 1.0 0.0 
56.0 1.0 0.0 62.0 1.0 0.0 
68.0 1.0 0.0 74.0 1.0 0.0 
80.0 1.0 0.0 86.0 1.0 0.0 
99.0 15.0 0.0 10.0 29.0 0.0 
17.0 29.0 0.0 22.0 29.0 0.0 
27.0 29.0 0.0 32.0 29.0 0.0 
37.0 29.0 0.0 42.0 29.0 0.0 
47.0 29.0 0.0 52.0 29.0 0.0 
57.0 29.0 0.0 62.0 29.0 0.0 
67.0 29.0 0.0 72.0 29.0 0.0 
77.0 29.0 0.0 82.0 29.0 0.0 
0.982043965477184 1.98304218642421 0.0 1.0 29.0 0.0 
99.0 1.0 0.0 99.0 29.0 0.0 
0.983223912217958 0.987621281485569 0.0 0.999949380687591 5.99961944502072 0.0 
0.999999970537249 8.99999955168247 0.0 1.0 14.0 0.0 
1.0 20.0 0.0 1.0 22.0 0.0 
1.0 25.0 0.0 6.99998134409618 0.99999175922936 0.0 
10.9999999999491 0.999999999973743 0.0 15.0 1.0 0.0 
18.0 1.0 0.0 24.0 1.0 0.0 
30.0 1.0 0.0 36.0 1.0 0.0 
42.0 1.0 0.0 48.0 1.0 0.0 
54.0 1.0 0.0 60.0 1.0 0.0 
66.0 1.0 0.0 72.0 1.0 0.0 
78.0 1.0 0.0 84.0 1.0 0.0 
90.0 1.0 0.0 92.0 1.0 0.0 
95.0 1.0 0.0 99.0 2.0 0.0 
99.0 5.0 0.0 99.0 6.0 0.0 
99.0 9.0 0.0 99.0 10.0 0.0 
99.0 11.0 0.0 99.0 16.0 0.0 
99.0 19.0 0.0 99.0 20.0 0.0 
99.0 23.0 0.0 2.0 29.0 0.0 
5.0 29.0 0.0 6.0 29.0 0.0 
11.0 29.0 0.0 12.0 29.0 0.0 
13.0 29.0 0.0 18.0 29.0 0.0 
23.0 29.0 0.0 28.0 29.0 0.0 
33.0 29.0 0.0 38.0 29.0 0.0 
43.0 29.0 0.0 48.0 29.0 0.0 
53.0 29.0 0.0 58.0 29.0 0.0 
63.0 29.0 0.0 68.0 29.0 0.0 
73.0 29.0 0.0 78.0 29.0 0.0 
83.0 29.0 0.0 86.0 29.0 0.0 
87.0 29.0 0.0 90.0 29.0 0.0 
91.0 29.0 0.0 94.0 29.0 0.0 
97.0 29.0 0.0 16.0 2.0 0.0 
22.0 28.0 0.0 27.0 28.0 0.0 
52.0 28.0 0.0 57.0 28.0 0.0 
82.0 28.0 0.0 32.0 28.0 0.0 
37.0 28.0 0.0 62.0 28.0 0.0 
67.0 28.0 0.0 42.0 28.0 0.0 
72.0 28.0 0.0 98.0 15.0 0.0 
12.0 28.0 0.0 98.0 19.0 0.0 
89.0 28.0 0.0 98.0 10.0 0.0 
1.99999999531953 9.999999928767 0.0 93.0 2.0 0.0 
2.0 23.0 0.0 98.0 22.0 0.0 
93.0 28.0 0.0 1.99998433821395 6.9998796865685 0.0 
98.0 5.0 0.0 5.0 28.0 0.0 
85.0 28.0 0.0 96.0 28.0 0.0 
1.98413137230705 0.988341966066793 0.0 0.993390117123437 2.98985247870427 0.0 
0.999537928146093 4.99813727245904 0.0 0.999998442801018 7.99998651096591 0.0 
0.999999999636129 10.9999999944437 0.0 1.0 13.0 0.0 
1.0 15.0 0.0 1.0 17.0 0.0 
1.0 19.0 0.0 1.0 21.0 0.0 
1.0 24.0 0.0 1.0 26.0 0.0 
1.0 28.0 0.0 3.99605406296194 0.997383435909015 0.0 
5.99977465143194 0.999865295129002 0.0 7.9999965299808 0.999998450318377 0.0 
9.99999999988557 0.999999999940923 0.0 11.9999999999936 0.999999999996718 0.0 
14.0 1.0 0.0 17.0 1.0 0.0 
19.0 1.0 0.0 21.0 1.0 0.0 
23.0 1.0 0.0 25.0 1.0 0.0 
27.0 1.0 0.0 29.0 1.0 0.0 
31.0 1.0 0.0 33.0 1.0 0.0 
35.0 1.0 0.0 37.0 1.0 0.0 
39.0 1.0 0.0 41.0 1.0 0.0 
43.0 1.0 0.0 45.0 1.0 0.0 
47.0 1.0 0.0 49.0 1.0 0.0 
51.0 1.0 0.0 53.0 1.0 0.0 
55.0 1.0 0.0 57.0 1.0 0.0 
59.0 1.0 0.0 61.0 1.0 0.0 
63.0 1.0 0.0 65.0 1.0 0.0 
67.0 1.0 0.0 69.0 1.0 0.0 
71.0 1.0 0.0 73.0 1.0 0.0 
75.0 1.0 0.0 77.0 1.0 0.0 
79.0 1.0 0.0 81.0 1.0 0.0 
83.0 1.0 0.0 85.0 1.0 0.0 
87.0 1.0 0.0 89.0 1.0 0.0 
91.0 1.0 0.0 94.0 1.0 0.0 
96.0 1.0 0.0 98.0 1.0 0.0 
99.0 3.0 0.0 99.0 7.0 0.0 
99.0 12.0 0.0 99.0 14.0 0.0 
99.0 17.0 0.0 99.0 21.0 0.0 
99.0 24.0 0.0 99.0 26.0 0.0 
99.0 28.0 0.0 3.0 29.0 0.0 
7.0 29.0 0.0 9.0 29.0 0.0 
14.0 29.0 0.0 16.0 29.0 0.0 
19.0 29.0 0.0 21.0 29.0 0.0 
24.0 29.0 0.0 26.0 29.0 0.0 
29.0 29.0 0.0 31.0 29.0 0.0 
34.0 29.0 0.0 36.0 29.0 0.0 
39.0 29.0 0.0 41.0 29.0 0.0 
44.0 29.0 0.0 46.0 29.0 0.0 
49.0 29.0 0.0 51.0 29.0 0.0 
54.0 29.0 0.0 56.0 29.0 0.0 
59.0 29.0 0.0 61.0 29.0 0.0 
64.0 29.0 0.0 66.0 29.0 0.0 
69.0 29.0 0.0 71.0 29.0 0.0 
74.0 29.0 0.0 76.0 29.0 0.0 
79.0 29.0 0.0 81.0 29.0 0.0 
84.0 29.0 0.0 88.0 29.0 0.0 
92.0 29.0 0.0 95.0 29.0 0.0 
98.0 29.0 0.0 98.0 8.0 0.0 
10.0 28.0 0.0 86.0 28.0 0.0 
90.0 28.0 0.0 22.0 2.0 0.0 
28.0 2.0 0.0 34.0 2.0 0.0 
40.0 2.0 0.0 46.0 2.0 0.0 
52.0 2.0 0.0 58.0 2.0 0.0 
64.0 2.0 0.0 70.0 2.0 0.0 
76.0 2.0 0.0 82.0 2.0 0.0 
2.0 16.0 0.0 85.0 27.0 0.0 
88.0 2.0 0.0 11.9999999999928 1.99999999999631 0.0 
89.0 27.0 0.0 8.99999961400676 1.99999982348209 0.0 
5.9997075717904 1.99979502371096 0.0 1.99934767917968 4.99734291783241 0.0 
16.0 28.0 0.0 46.0 28.0 0.0 
76.0 28.0 0.0 2.0 27.0 0.0 
3.99556896721827 1.99618513026716 0.0 97.0 2.0 0.0 
2.0 20.0 0.0 94.0 28.0 0.0 
24.0 28.0 0.0 29.0 28.0 0.0 
34.0 28.0 0.0 39.0 28.0 0.0 
54.0 28.0 0.0 59.0 28.0 0.0 
64.0 28.0 0.0 69.0 28.0 0.0 
98.0 12.0 0.0 7.0 28.0 0.0 
98.0 24.0 0.0 97.0 28.0 0.0 
20.0 2.0 0.0 26.0 2.0 0.0 
32.0 2.0 0.0 38.0 2.0 0.0 
44.0 2.0 0.0 50.0 2.0 0.0 
56.0 2.0 0.0 62.0 2.0 0.0 
68.0 2.0 0.0 74.0 2.0 0.0 
80.0 2.0 0.0 86.0 2.0 0.0 
1.99999981323511 8.99999805583899 0.0 2.0 14.0 0.0 
91.0 2.0 0.0 98.0 20.0 0.0 
18.0 28.0 0.0 48.0 28.0 0.0 
78.0 28.0 0.0 83.0 28.0 0.0 
87.0 28.0 0.0 91.0 28.0 0.0 
98.0 7.0 0.0 14.0 28.0 0.0 
20.0 28.0 0.0 25.0 28.0 0.0 
30.0 28.0 0.0 35.0 28.0 0.0 
40.0 28.0 0.0 44.0 28.0 0.0 
50.0 28.0 0.0 55.0 28.0 0.0 
60.0 28.0 0.0 65.0 28.0 0.0 
70.0 28.0 0.0 74.0 28.0 0.0 
80.0 28.0 0.0 98.0 13.0 0.0 
1.99999999996321 11.9999999994391 0.0 2.0 18.0 0.0 
98.0 17.0 0.0 98.0 18.0 0.0 
8.0 28.0 0.0 98.0 3.0 0.0 
98.0 4.0 0.0 98.0 25.0 0.0 
3.0 28.0 0.0 4.0 28.0 0.0 
1.9971839117747 3.993137435461 0.0 1.98608618048036 1.98526975763388 0.0 
14.0 2.0 0.0 98.0 26.0 0.0 
98.0 27.0 0.0 1.99983949066551 5.99923056007149 0.0 
2.0 22.0 0.0 2.0 25.0 0.0 
7.99999502590895 1.99999772908988 0.0 10.9999999997687 1.99999999988056 0.0 
15.0 2.0 0.0 18.0 2.0 0.0 
[...]
CELL_DATA 3000

SCALARS element_states float
LOOKUP_TABLE default
1 1 1 1 1 1 0 0 0 0 0 0 0 0 0 0 0 1 0 0 0 0 0 0 0 0 0 0 0 1 
0 0 0 0 0 1 0 0 1 0 0 0 0 0 0 1 1 1 0 0 0 1 0 0 0 0 1 1 1 1 
1 1 1 0 0 0 0 0 0 0 0 0 0 0 0 0 0 0 0 0 0 1 1 1 1 1 1 1 1 1 
1 1 1 1 1 1 1 1 1 1 1 1 1 1 1 1 1 1 1 1 1 1 1 1 1 1 1 1 1 1 
1 1 1 1 1 1 1 1 1 1 1 1 1 1 1 1 1 1 1 1 1 1 1 1 1 1 1 1 1 1 
1 1 1 1 1 1 1 1 1 1 1 1 1 1 1 1 1 1 1 1 1 1 1 1 1 1 1 1 1 1 
1 1 1 1 1 1 1 1 0 0 0 0 0 0 0 0 0 0 0 0 0 0 0 0 0 0 0 0 0 0 
0 0 0 1 1 1 1 1 1 1 1 1 1 1 1 1 1 1 1 1 1 1 1 1 1 1 1 1 1 1 
1 1 1 1 1 1 1 1 1 1 1 1 1 1 1 1 1 1 1 1 1 1 1 1 1 1 1 1 1 1 
1 1 1 1 1 1 1 1 1 1 1 1 1 1 1 1 1 1 1 1 0 1 0 0 0 0 0 0 0 0 
0 0 0 0 0 0 0 0 0 0 0 1 1 1 1 1 1 1 1 1 1 1 1 1 1 0 0 0 1 1 
1 1 1 0 1 1 1 1 1 1 0 1 1 1 1 1 1 1 1 1 0 0 1 1 1 1 1 1 1 1 
1 1 0 0 0 0 0 0 0 0 0 0 0 1 1 1 1 1 1 1 1 1 1 1 1 1 1 1 1 1 
1 1 1 1 1 1 1 1 1 1 1 0 0 0 0 0 0 1 1 1 1 1 0 1 1 1 1 1 1 0 
1 1 0 0 1 0 0 0 0 0 0 0 0 0 0 0 0 0 0 0 0 0 0 0 0 1 1 1 1 1 
1 1 1 1 1 1 1 1 1 1 1 1 1 1 1 1 1 1 1 1 1 1 1 1 1 1 1 1 1 1 
1 1 1 1 1 1 1 1 1 1 1 1 1 1 1 1 1 1 1 1 1 1 1 1 1 1 1 1 1 1 
1 1 1 1 1 1 1 1 1 1 1 1 1 1 1 1 1 1 1 0 0 0 0 0 0 1 1 1 1 1 
1 1 1 1 1 1 1 1 1 1 1 1 1 0 0 0 0 0 1 1 0 0 0 0 0 0 0 0 0 0 
1 1 1 0 0 1 1 0 0 0 0 0 1 1 1 0 0 0 0 0 0 1 1 1 1 1 1 1 1 1 
1 1 1 0 0 0 0 0 1 1 0 0 1 1 1 1 0 1 1 0 0 1 1 1 1 0 0 0 0 1 
0 0 0 0 0 0 0 1 1 1 1 1 1 1 1 1 1 1 1 1 1 1 1 1 1 1 1 1 1 1 
1 1 1 1 1 1 0 1 1 1 1 1 1 1 1 1 1 1 1 1 0 0 0 0 0 0 0 0 0 0 
0 0 0 0 1 1 0 1 0 0 1 1 0 1 0 0 0 1 0 0 0 0 1 1 1 1 1 1 1 1 
1 1 1 1 0 0 0 0 0 0 0 1 1 1 1 1 1 1 1 1 1 1 1 1 1 1 1 1 1 1 
1 1 1 1 1 1 1 1 1 1 1 1 1 0 0 0 0 0 0 0 0 0 0 0 0 0 0 0 0 0 
0 0 0 0 0 0 0 0 0 0 0 0 0 0 0 0 0 0 0 0 0 0 1 0 1 1 1 1 1 1 
1 1 0 0 0 1 0 0 0 0 0 1 1 1 1 1 1 1 1 0 0 0 0 0 0 0 0 0 0 0 
1 1 1 0 0 1 1 1 1 1 1 1 0 0 0 0 0 0 0 0 0 0 0 0 0 1 0 0 1 1 
1 0 0 0 0 0 0 0 1 1 0 0 1 1 0 1 1 1 0 0 0 0 0 0 1 1 1 1 1 1 
0 0 0 0 1 1 1 0 0 0 0 1 0 1 0 1 1 1 0 0 1 0 0 1 0 0 1 1 0 0 
1 1 0 1 1 0 0 1 1 1 1 1 1 1 1 1 1 0 0 0 0 0 0 0 0 0 0 0 0 0 
0 0 0 0 0 0 0 1 1 1 0 0 0 0 0 1 1 1 0 0 1 1 0 1 1 0 0 1 0 0 
0 1 1 1 1 0 0 0 1 1 1 1 1 0 0 0 0 0 1 0 0 0 0 1 1 0 0 0 0 0 
1 1 0 0 0 0 0 0 1 0 1 0 0 0 1 1 0 0 1 0 0 0 0 1 0 1 1 1 1 1 
1 1 1 1 1 1 0 0 0 0 0 0 0 1 1 0 0 0 0 1 1 1 1 1 1 1 1 1 0 0 
0 0 0 0 0 0 0 0 1 1 1 0 0 0 0 1 1 1 1 1 1 0 0 0 0 0 0 0 0 0 
0 0 0 0 0 1 1 1 0 0 0 0 1 0 1 1 1 0 1 1 0 1 1 1 0 0 0 0 0 0 
0 0 1 1 0 0 1 1 1 0 0 1 0 1 0 0 0 0 0 1 0 0 1 0 1 1 1 1 0 0 
0 1 0 1 1 1 1 0 0 1 0 1 0 0 1 1 0 0 1 0 1 1 0 0 0 0 0 0 1 0 
1 0 1 1 0 1 0 0 1 1 1 1 0 0 0 0 0 0 0 0 0 0 0 0 0 0 1 0 0 1 
1 0 0 0 0 1 0 1 1 0 0 0 0 0 0 1 1 1 0 0 0 1 1 0 0 0 1 1 1 1 
0 0 0 0 1 1 1 1 1 0 1 0 1 0 0 1 0 1 0 1 1 0 0 0 1 0 0 0 0 0 
0 0 1 1 1 0 1 1 0 0 1 1 1 1 1 1 1 0 0 1 0 1 0 0 0 0 1 1 1 0 
0 0 0 0 0 0 1 0 1 0 0 0 1 1 0 0 1 1 1 1 1 1 0 1 0 1 1 0 0 0 
0 0 0 1 1 1 0 0 0 0 0 0 0 1 0 0 0 0 0 0 0 0 1 1 0 0 1 1 0 0 
0 0 0 0 0 0 1 1 0 0 0 0 1 1 1 1 1 1 0 0 0 0 0 0 0 0 1 1 1 0 
1 0 0 0 0 1 1 0 1 1 0 1 0 1 1 0 0 0 0 1 1 1 1 0 0 0 0 0 0 0 
1 1 1 1 0 0 0 0 0 0 0 0 0 0 1 0 0 0 1 1 0 0 0 1 1 0 0 0 0 0 
0 0 0 0 1 1 1 1 1 1 1 0 1 0 0 1 0 0 0 0 0 0 0 0 0 0 1 1 0 0 
0 1 1 1 1 0 0 0 1 1 1 1 1 0 0 0 0 0 0 1 1 0 0 1 0 0 0 0 1 1 
0 0 0 1 0 0 0 0 0 0 0 0 1 1 1 0 0 0 0 1 0 1 0 0 0 1 0 1 0 1 
0 1 1 1 1 1 0 0 1 0 0 0 1 1 1 0 1 1 0 1 1 0 0 0 1 1 0 0 0 0 
0 0 0 0 0 0 0 0 0 0 0 1 0 1 0 0 1 0 0 0 0 1 1 1 0 1 0 0 0 0 
0 0 1 1 0 0 0 0 0 0 0 0 1 1 1 1 0 0 0 0 0 1 1 1 1 1 0 0 0 0 
0 0 0 0 0 0 0 0 0 0 0 1 1 0 0 0 1 0 0 1 0 0 0 1 0 0 0 1 1 1 
0 0 1 0 0 0 0 1 0 0 1 1 0 1 1 0 0 1 1 0 0 1 1 0 0 0 0 1 1 1 
0 0 0 0 0 0 0 0 1 1 0 0 0 0 0 0 0 0 0 0 1 0 0 0 0 1 1 0 0 0 
0 0 1 0 0 0 0 1 1 0 0 0 0 1 1 0 0 0 1 0 0 1 1 0 0 0 0 1 0 0 
0 0 1 1 1 0 0 1 1 1 0 0 0 0 0 0 1 0 0 0 0 0 0 0 1 0 0 0 0 0 
0 0 0 0 0 0 0 0 1 0 1 1 0 0 0 0 0 0 0 0 1 0 0 0 0 0 1 0 0 1 
1 1 0 1 1 1 1 0 0 0 0 0 0 0 1 1 1 1 0 0 0 0 0 0 0 0 0 0 0 0 
0 0 1 1 1 1 1 0 0 1 1 0 0 0 0 0 0 0 0 0 0 0 0 1 0 0 0 0 0 1 
0 0 0 0 0 0 1 0 0 0 0 0 0 0 0 0 0 0 0 0 0 0 1 0 0 0 0 1 1 0 
0 0 0 0 0 0 0 0 0 0 1 1 0 0 1 0 0 0 0 0 0 1 1 1 0 0 1 1 1 0 
1 1 0 1 1 0 0 0 0 0 0 0 1 0 0 0 1 1 0 0 1 1 0 1 1 0 0 0 0 0 
0 0 0 0 0 0 1 1 1 0 1 0 0 0 1 0 0 0 0 0 0 0 0 0 0 0 0 0 0 1 
0 0 0 0 1 0 1 1 0 0 0 0 0 0 0 0 0 1 0 0 1 0 0 0 0 0 1 1 1 0 
0 0 0 0 1 0 0 0 0 0 1 1 0 0 0 0 0 0 0 0 0 1 1 0 1 0 0 0 1 0 
0 0 0 0 0 0 0 0 0 0 0 0 1 1 0 0 0 0 0 0 0 1 1 0 0 0 0 0 0 0 
1 0 0 1 0 0 0 1 1 0 1 1 1 0 0 0 0 0 0 0 0 0 1 0 0 1 1 1 1 1 
0 0 0 0 0 1 1 0 0 0 1 1 0 0 0 0 0 0 1 1 0 0 0 0 0 0 1 0 0 0 
1 0 0 0 0 0 0 0 0 0 0 0 0 0 0 0 0 0 0 0 1 1 0 1 0 0 1 1 0 1 
0 0 0 0 0 0 0 0 0 1 0 0 0 0 0 0 0 0 0 0 1 0 0 0 1 0 0 0 0 0 
0 0 0 0 1 0 0 1 1 1 1 1 0 0 1 1 1 1 0 0 0 1 0 1 0 0 0 0 0 1 
1 0 1 0 1 1 0 1 1 0 0 0 0 0 0 0 0 0 0 0 0 0 0 1 1 0 0 0 0 0 
0 1 1 0 1 1 0 0 0 0 0 0 0 0 0 0 0 0 0 0 1 0 0 0 0 0 0 1 0 0 
0 0 1 1 1 0 0 0 0 0 0 1 1 0 0 0 0 0 0 0 1 1 1 0 0 0 0 1 0 0 
0 0 0 0 1 1 1 0 0 0 0 0 0 0 0 0 0 0 0 0 0 1 1 1 1 0 0 1 0 0 
0 0 0 1 1 0 0 0 0 0 1 1 0 1 0 0 0 0 0 0 0 0 0 0 0 0 0 0 0 0 
0 1 1 0 0 0 0 0 0 0 0 0 0 0 0 0 0 0 1 1 0 0 1 0 0 1 1 0 0 1 
0 1 1 1 0 1 1 0 0 1 0 1 0 0 0 0 0 0 0 0 0 1 1 1 1 1 1 0 1 0 
0 1 1 1 1 1 0 1 0 0 0 0 0 0 0 0 0 1 0 0 0 0 0 0 0 1 0 0 0 0 
0 0 0 0 0 0 0 0 0 1 1 0 0 0 0 0 0 0 0 1 0 0 0 1 0 0 0 0 0 0 
0 0 0 0 0 0 0 0 0 0 0 0 0 0 0 1 0 1 0 0 0 0 0 1 1 0 0 0 1 1 
1 1 1 0 1 0 1 0 0 1 0 0 0 0 1 0 0 1 0 0 0 0 0 0 0 0 0 0 0 1 
0 1 1 0 0 0 1 0 0 1 1 0 0 0 1 0 0 0 0 0 0 0 1 0 0 0 0 0 0 0 
0 1 0 1 0 1 0 0 0 1 1 1 0 0 0 0 0 0 0 0 0 0 1 0 0 0 0 0 0 1 
0 0 0 0 1 0 0 0 0 0 1 1 1 1 0 0 1 1 1 1 0 0 0 1 0 0 0 0 0 0 
0 0 0 0 0 0 0 0 0 0 0 0 0 0 0 0 0 0 0 0 0 0 0 0 0 0 0 0 0 1 
1 1 1 0 0 0 1 1 0 0 0 1 1 0 1 1 0 0 0 0 0 0 0 0 0 0 0 0 0 0 
0 0 0 0 0 0 1 0 0 0 0 1 1 1 0 0 0 0 0 1 1 0 0 1 0 0 0 0 0 0 
1 0 1 0 0 0 0 0 1 0 0 0 0 0 0 0 0 0 1 1 0 1 0 0 0 0 0 0 0 0 
1 0 0 0 0 1 0 0 0 0 0 0 0 0 0 0 0 0 0 1 1 0 0 0 1 0 1 1 0 0 
0 0 0 0 1 1 0 0 0 1 1 0 0 0 0 0 0 0 1 1 1 1 1 1 0 1 0 0 0 0 
0 0 0 1 0 0 0 0 0 0 0 0 0 0 0 0 0 0 0 0 0 0 0 0 0 1 1 1 1 1 
1 0 0 0 0 1 1 0 1 0 0 0 0 0 0 0 0 0 0 0 0 0 0 0 0 1 0 0 0 0 
0 0 0 0 0 0 0 0 0 1 1 0 0 0 0 0 1 1 1 0 0 0 0 0 0 0 0 0 0 0 
0 0 1 0 0 0 1 1 0 0 0 0 0 0 0 0 0 0 0 0 0 0 0 0 0 0 0 0 0 0 
0 0 0 1 0 0 0 0 0 0 0 0 0 0 0 0 0 0 0 0 0 0 0 0 0 0 0 1 1 1 


SCALARS sensitivity_number float
LOOKUP_TABLE default
0.010806383654836446 0.009069680315880724 0.007478935532416635 0.009061733209808139 0.0074722320864367186 0.0027457135484914965 
0.0012292181460232133 2.0182292463411827e-08 2.0270407380297775e-08 1.919768268365967e-08 1.9110849703944098e-08 1.8874693705469585e-08 
1.6618458760601673e-08 2.776019689242495e-11 1.2533872041642687e-11 6.81946209936872e-11 3.1018462659215674e-11 0.0027457611435882275 
0.0012292753043958516 0.0012292361042874928 0.0012292112298547553 3.912483778643582e-08 3.8357807653146424e-08 4.072661574060818e-08 
4.252601113461648e-08 4.1516968267837486e-08 4.154002980123285e-08 0.002579379095055638 6.716876982100039e-08 0.003134526403797346 
7.321405129151926e-08 0.0006669717856294093 9.708685320718951e-05 2.0115032197117648e-08 0.000258686193808702 0.004360530739753173 
0.0017303019281574043 2.0299562211420005e-08 0.0029747189832511336 1.924714893090488e-08 0.0008979522033588866 0.0013909345908814247 
0.002555665140326571 1.7879634764730688e-08 1.8184780976438313e-08 0.005170064787432985 0.002827842936945677 0.00343108084044487 
0.000369880543368972 1.7491682324218077e-08 1.6942004553508273e-08 0.0028284740513172435 1.6250583725532864e-08 1.53082093847095e-08 
1.4705784779870357e-08 1.5280769978924618e-08 0.011474536588700566 0.010804767001907389 0.007484405944597739 0.009072289516787067 
0.006051257773749584 0.0047726920691381 0.002652642246606523 0.0013648076046363041 3.6414163413958216e-08 3.936105733409099e-08 
4.2256459579623285e-08 4.046121002628712e-08 4.3890829052924916e-08 4.560179399702085e-08 4.9149628872641957e-08 4.7342864694221896e-08 
5.305944294476487e-08 5.1042793873849844e-08 5.525683584234439e-08 5.7628487675166824e-08 6.026225490794021e-08 6.272171196594137e-08 
6.710036150386835e-08 6.845423552958576e-08 0.0003293928109568023 0.007551662268297765 0.0025808374442689045 0.017854522169964516 
0.04607102734194635 0.03639716496213964 0.011645284206953065 0.011637463772794322 0.011639714675939201 0.011636262638091742 
0.011636145056897433 0.011636133978677432 0.011636135286246062 0.01163612680581366 0.011636131770370817 0.011636414422479025 
0.011636201033576512 0.01163690890053759 0.011637866547939663 0.011639473993456901 0.011641746347220181 0.011644145467863881 
0.011638729916353278 0.011644734606453369 0.01155918042166235 0.011616192441925945 0.01144032948884933 0.011229021880242971 
0.010539630160295682 0.010913618536998668 0.01020438860456293 0.010238918078149221 0.01059113755563693 0.011398807189235199 
0.013532789086839176 0.012459777199552543 0.014844013878853637 0.014401381750197706 0.014612198433206892 0.01359358538472663 
0.009985277642703244 0.01192898614316347 0.00696843975400371 0.00827225470450628 0.006011737847633275 0.0052214268195882076 
0.0039583597752521835 0.004523617551825624 0.0033739561572697797 0.0035694744942337537 0.003402829882169221 0.003722218670391415 
0.003830214531672543 0.0038444730536906437 0.0038345098511327804 0.003834144126712675 0.0038334612665960294 0.0038331622081974534 
0.0038324434115385563 0.0038327728683986498 0.0038319012111776014 0.0038321501225976476 0.003831693316971077 0.0038315275889195793 
0.003831322617773765 0.003831403954316513 0.003831287223269407 0.0038312836246794492 0.0038313338681555255 0.0038314239958800534 
0.00383173637257601 0.0038315580901375147 0.003832226703810409 0.0038319591265372306 0.0038325392430547858 0.003832896697118088 
0.0038337467039855993 0.0038332991344478574 0.0038347771599217717 0.0038342393543199854 0.003835360174697178 0.003835988163187524 
0.003837379919125479 0.003836661425039978 0.0038389526844895853 0.0038381436060791222 0.003839807129533281 0.003840706751139644 
0.0038426422226290444 0.003841651793285462 0.0038447580297795076 0.0038436781579958383 0.003845890154308823 0.0038470589898063376 
0.0038482337517448347 0.0038494043935500427 0.003853077919362758 0.0038482066204673596 0.0038340756646917853 0.0032697960589131393 
0.003673166390007185 0.0038207057740763653 0.02064430304231612 0.01271974315700813 0.02009494269332142 0.005657367703668212 
0.009686345861547872 0.0031206074168183217 0.0009436743214620948 7.140425326006646e-09 1.8199596150908602e-08 3.7056171586150052e-09 
2.388230549366854e-09 1.5444443700588714e-09 6.448766789779951e-10 9.978693344007912e-10 4.275937841353045e-10 2.9347376133048995e-10 
2.0515122776471716e-10 9.708437007108973e-11 1.4262444507053216e-10 6.405146151363116e-11 4.062350858818719e-11 1.4596732075187978e-11 
2.470515605839117e-11 8.754956834559634e-12 4.3645771440513354e-12 5.750843923073975e-12 3.699416905697149e-12 3.1972335817651166e-12 
2.5354797690498167e-12 1.6270661877090661e-12 1.1537068015658698e-12 0.04973177708853787 0.0245996572862019 0.03233204883420156 
0.02026506819118939 0.01710686438945115 0.013697157855684072 0.015010808277100102 0.01291279125796335 0.012378516277705882 
0.011864869087684759 0.011263681231526474 0.010573586353366797 0.00912082213711808 0.00984414943342334 0.008422015723310613 
0.007755320584912955 0.007145293070421652 0.006314050682109472 0.006649683014487333 0.006136613468325458 0.00602731660421765 
0.005885752674415962 0.005333063250604576 0.005652689270510128 0.004967057326106369 0.004599456277226257 0.004276987832637764 
0.003992489511200007 0.004053726173688416 0.0041482122493687115 0.0045579048264628745 0.005195599628151501 0.006458321721457101 
0.005912430220865694 0.0066679235933538705 0.00662112459419918 0.006599995465268883 0.006585549734039432 0.006597012715327328 
0.006564047490911899 0.006539774921447755 0.00651661067620145 0.006470991981293614 0.006493741758864481 0.006448293362968027 
0.006425666386298077 0.006403113547932753 0.006358234195339756 0.006380636143260171 0.006335908497795465 0.006313659829709938 
0.006291489519812978 0.0062473905934102136 0.006269399221305146 0.006225465570175534 0.006203624373249207 0.0061818659052264285 
0.006138624530364057 0.006160176848818455 0.0061173306506189205 0.00609680803212125 0.006073261730968578 0.0060062559203757976 
0.006043238678914829 0.006005430019731004 0.006051784390938521 0.0059536940832849725 0.005914594938298618 0.005898983997118539 
0.0059545940896340065 0.005819951169720991 0.0057852671684351575 0.006025542866256171 0.005985436112789267 0.005645312862159208 
0.0049267296199839525 0.003921856618983302 0.0017227780838278107 0.002768663552007882 0.000494185685659385 9.243624443482293e-09 
6.266038004568637e-09 2.78398471929704e-09 4.253590213169133e-09 1.8072380128093143e-09 1.1681606036311527e-09 4.302209825060821e-10 
7.284147372010095e-10 2.382258086116355e-10 1.2256742291581107e-10 2.573078246654888e-11 5.82392190126142e-11 5.6030239551076686e-12 
1.1169157636697933e-11 3.829314952862232e-12 3.1936417051996584e-12 1.640900384991714e-12 2.5553042258910163e-12 0.007996890992535971 
0.008476901200356466 0.00531110095792361 0.003937771423409026 0.005625975082882575 0.006219424058877936 0.006211692319700856 
0.006213137025986541 0.006204236350889034 0.0062045986953857555 0.006191575619359042 0.0060943077773315995 0.005291668019989257 
0.005400601413638807 8.719113680456104e-10 1.2722216276626775e-10 1.7731926010076975e-10 0.012022386036681815 0.010785269958642481 
0.010788446980631066 0.003209607008951084 0.004969120301438933 8.035773987208173e-12 0.018003016905799224 0.02190373442328624 
0.007481873345899812 0.0060469470605064544 0.010783933580586585 0.010783988031226571 2.9328438049143536e-12 0.007519465593006711 
0.007037513989463172 0.006210363851915637 0.006209158157766673 0.004830438843055612 0.0040247077601554436 0.009076072035861651 
0.0027461470423348995 0.004767631911577333 3.9270393268058224e-08 6.520495077981212e-08 0.010784281985974756 0.0107840642841571 
0.010783945851231807 0.010784682716195032 0.010784190399159286 0.0025194487112690676 0.002519321660233709 0.0025199178317066263 
0.013479675442141254 0.006515363070779576 0.002811231324099126 0.0009276471625895286 2.5689784077769758e-09 3.500237080940152e-09 
1.837244503710746e-09 1.278885349147544e-09 3.3006965616940497e-10 2.431777448575129e-10 8.910612706921676e-11 2.429979452841977e-11 
1.425809912127415e-11 0.03397605412530276 0.027273439756691182 0.015186685566641486 0.01324363958050018 0.010046597081588166 
0.010521506943234556 0.009510629492025817 0.008979335013573191 0.0058593966051659375 0.005617038584321877 0.00434633257802398 
0.0040891280042199005 0.004567368355455278 0.005132086141316224 0.006190737350392869 0.006201683162448446 0.00621646214751624 
0.006214693018224257 0.0062050112299785265 0.0062045600364384595 0.006204026596262383 0.006204203987923296 0.006202740058513382 
0.006192188577485775 0.006095203976979482 0.006182082881062892 0.006001595130709864 0.0055738096569280145 6.125714229385739e-09 
2.1212426485834673e-09 1.4578911921949274e-09 3.643946550133458e-10 2.0880570743268775e-10 3.113691681970926e-12 0.010785671759805465 
0.006002822972417454 0.004658414406515806 0.006205589099883026 0.006203971694063077 0.0003027536591298718 0.004147822223101307 
0.006173652714313407 0.006206253647730696 0.005879774477791925 0.0062187259257732875 0.00602234623384134 4.4601233152110194e-10 
0.007298708093679747 0.0074764457377959346 6.058779135574279e-10 4.044969857959448e-08 0.002522920426186513 6.411270646691689e-08 
3.927240275041405e-11 5.805164800739001e-11 0.0012292321219260543 3.0749192023227675e-09 5.727585589363688e-12 1.2240249768728739e-11 
3.6625977568174166e-08 4.219716690551835e-08 4.547939622203604e-08 4.3808396916709756e-08 4.8922648149647694e-08 4.7174170029629316e-08 
5.0736464209399595e-08 5.264224353389733e-08 5.6938688444272365e-08 5.469172036688489e-08 5.9423872961508724e-08 6.171557511071758e-08 
0.0007855367755035944 0.008691114834859067 0.0036179764342299525 0.01855271937518435 0.010795364757626047 0.010784037645692404 
0.01078401137254544 0.010783979218250037 0.010787406678495925 0.010793178325929124 0.010790038566304994 0.01078702190283493 
0.01079461475194374 0.010751371313101714 0.010650247866186423 0.010107963011803792 0.010437723844937769 0.009605875278742671 
0.009761747975817466 0.009820025366622014 0.01040127218099447 0.011755108259317287 0.011126845002759936 0.012380111384645925 
0.012175966608825998 0.012248167380300252 0.011515323228946812 0.008808974214775726 0.0102162096540558 0.006583292354458389 
0.007502760197514411 0.005865754539727322 0.005151160874011083 0.0038611559937025077 0.0044581171154339785 0.0030843860782972816 
0.0033931433239352653 0.0028897213869290995 0.0025529598100349537 0.0025429599011073923 0.002550495758102422 0.0025440941587452433 
0.0025448531468189833 0.002542615524767816 0.0025415672308171104 0.002539414876647927 0.0025404766609785105 0.0025373748399094066 
0.0025383804439894704 0.0025363939182682874 0.0025354372648551354 0.002533602323160814 0.0025345067271180226 0.0025318669957915315 
0.0025327227743890865 0.002531036348809942 0.0025302320922434285 0.0025287072717376734 0.0025294556023285103 0.0025272973901997735 
0.0025279878240832814 0.002526636312211075 0.0025260045411851203 0.0025248291481488917 0.0025254021182648536 0.002523771302426511 
0.002524285510992007 0.0025232864869830706 0.002522831057224315 0.00252200843204586 0.002522405095367948 0.0025213038131371474 
0.0025216414140313325 0.0025209957835801095 0.00252071733240689 0.0025202490793583437 0.0025204682735213246 0.002519900527665826 
0.0025200584925039286 0.0025197619878437228 0.0025197004244845414 0.0024866962403406446 0.0027278289001703075 0.0023227352243213287 
0.004261009441246102 0.00013020539670144816 6.119031151771911e-10 6.039861023769798e-11 4.5931084105489325e-12 1.684809640760292e-12 
2.153788896200737e-12 0.010912061023792831 0.01133635665616546 0.006585327986031521 0.0062686522423977655 0.006094416769188685 
0.004984988089939798 0.003947221657831546 0.005925752710495353 0.00622149066718103 0.006208077739574363 0.006207122670562012 
0.006206293060564577 0.006204040765679765 0.006205309856760762 0.006108099235605517 0.005844821843783686 0.0032626392431868707 
0.0020035816000893935 0.0014221873596940253 4.554376422591487e-09 9.615424192472098e-10 1.1348567973150754e-10 2.1690584330806757e-12 
0.0076918324818206095 0.007874059444973146 2.8341143838401615e-09 6.427156017915694e-10 5.004647208319597e-08 3.835558980637292e-09 
4.597649872458055e-09 0.001368541024013133 0.0013742098876605225 9.91494739583308e-10 1.4321047139472008e-09 9.699038705483653e-10 
0.00905074953770327 0.018361710834244212 0.0037018385614130964 5.7255183133132246e-08 1.9095359628573116e-09 0.008769243791712227 
0.009903707745678404 2.144809113526777e-12 4.437757384397338e-12 0.001362884905887144 3.924117835426795e-08 2.0763377021502821e-10 
0.006916426335922001 0.003954236979631177 0.004468798333337834 5.740230834513441e-09 0.000138898980745546 2.0883484827353692e-09 
1.4700971284044538e-09 4.010176131332345e-10 0.0010397249455306877 0.002573808399622286 0.007192914649050631 0.0051971657433412255 
0.003948685079843831 0.003539078111934393 0.003846926423686371 0.0038999237018158676 0.004051849977993847 0.004123664969924402 
0.004150058754256987 0.003989153058899691 0.00393168247477303 1.3634085072686357e-09 5.171503529686455e-08 5.3420451951121854e-08 
2.7805432654107803e-10 3.6431565854497994e-10 0.004753163042900488 0.004491052521438369 9.368228631241877e-12 2.0464084634985713e-11 
0.013668445102616982 0.016217390922361498 0.006045993544230231 0.009048216956996506 3.99029370638644e-12 0.0027462918758887713 
0.004767546610961856 6.155144513009007e-08 5.969964969550792e-08 0.00905038916252809 0.009050453792664505 0.009050099836893708 
0.009046916253986901 0.0013855517857659719 0.0013799150676369815 0.0013969506687016321 0.0013914591224799744 0.0030420166239069264 