# vtk DataFile Version 3.0
Results from optimization
ASCII
DATASET UNSTRUCTURED_GRID

POINTS 3131 float
0.0 0.0 0.0 0.0 30.0 0.0 
100.0 0.0 0.0 100.0 30.0 0.0 
0.0 1.0 0.0 0.0 2.0 0.0 
0.0 3.0 0.0 0.0 4.0 0.0 
0.0 5.0 0.0 0.0 6.0 0.0 
0.0 7.0 0.0 0.0 8.0 0.0 
0.0 9.0 0.0 0.0 10.0 0.0 
0.0 11.0 0.0 0.0 12.0 0.0 
0.0 13.0 0.0 0.0 14.0 0.0 
0.0 15.0 0.0 0.0 16.0 0.0 
0.0 17.0 0.0 0.0 18.0 0.0 
0.0 19.0 0.0 0.0 20.0 0.0 
0.0 21.0 0.0 0.0 22.0 0.0 
0.0 23.0 0.0 0.0 24.0 0.0 
0.0 25.0 0.0 0.0 26.0 0.0 
0.0 27.0 0.0 0.0 28.0 0.0 
0.0 29.0 0.0 1.0 0.0 0.0 
2.0 0.0 0.0 3.0 0.0 0.0 
4.0 0.0 0.0 5.0 0.0 0.0 
6.0 0.0 0.0 7.0 0.0 0.0 
8.0 0.0 0.0 9.0 0.0 0.0 
10.0 0.0 0.0 11.0 0.0 0.0 
12.0 0.0 0.0 13.0 0.0 0.0 
14.0 0.0 0.0 15.0 0.0 0.0 
16.0 0.0 0.0 17.0 0.0 0.0 
18.0 0.0 0.0 19.0 0.0 0.0 
20.0 0.0 0.0 21.0 0.0 0.0 
22.0 0.0 0.0 23.0 0.0 0.0 
24.0 0.0 0.0 25.0 0.0 0.0 
26.0 0.0 0.0 27.0 0.0 0.0 
28.0 0.0 0.0 29.0 0.0 0.0 
30.0 0.0 0.0 31.0 0.0 0.0 
32.0 0.0 0.0 33.0 0.0 0.0 
34.0 0.0 0.0 35.0 0.0 0.0 
36.0 0.0 0.0 37.0 0.0 0.0 
38.0 0.0 0.0 39.0 0.0 0.0 
40.0 0.0 0.0 41.0 0.0 0.0 
42.0 0.0 0.0 43.0 0.0 0.0 
44.0 0.0 0.0 45.0 0.0 0.0 
46.0 0.0 0.0 47.0 0.0 0.0 
48.0 0.0 0.0 49.0 0.0 0.0 
50.0 0.0 0.0 51.0 0.0 0.0 
52.0 0.0 0.0 53.0 0.0 0.0 
54.0 0.0 0.0 55.0 0.0 0.0 
56.0 0.0 0.0 57.0 0.0 0.0 
58.0 0.0 0.0 59.0 0.0 0.0 
60.0 0.0 0.0 61.0 0.0 0.0 
62.0 0.0 0.0 63.0 0.0 0.0 
64.0 0.0 0.0 65.0 0.0 0.0 
66.0 0.0 0.0 67.0 0.0 0.0 
68.0 0.0 0.0 69.0 0.0 0.0 
70.0 0.0 0.0 71.0 0.0 0.0 
72.0 0.0 0.0 73.0 0.0 0.0 
74.0 0.0 0.0 75.0 0.0 0.0 
76.0 0.0 0.0 77.0 0.0 0.0 
78.0 0.0 0.0 79.0 0.0 0.0 
80.0 0.0 0.0 81.0 0.0 0.0 
82.0 0.0 0.0 83.0 0.0 0.0 
84.0 0.0 0.0 85.0 0.0 0.0 
86.0 0.0 0.0 87.0 0.0 0.0 
88.0 0.0 0.0 89.0 0.0 0.0 
90.0 0.0 0.0 91.0 0.0 0.0 
92.0 0.0 0.0 93.0 0.0 0.0 
94.0 0.0 0.0 95.0 0.0 0.0 
96.0 0.0 0.0 97.0 0.0 0.0 
98.0 0.0 0.0 99.0 0.0 0.0 
100.0 1.0 0.0 100.0 2.0 0.0 
100.0 3.0 0.0 100.0 4.0 0.0 
100.0 5.0 0.0 100.0 6.0 0.0 
100.0 7.0 0.0 100.0 8.0 0.0 
100.0 9.0 0.0 100.0 10.0 0.0 
100.0 11.0 0.0 100.0 12.0 0.0 
100.0 13.0 0.0 100.0 14.0 0.0 
100.0 15.0 0.0 100.0 16.0 0.0 
100.0 17.0 0.0 100.0 18.0 0.0 
100.0 19.0 0.0 100.0 20.0 0.0 
100.0 21.0 0.0 100.0 22.0 0.0 
100.0 23.0 0.0 100.0 24.0 0.0 
100.0 25.0 0.0 100.0 26.0 0.0 
100.0 27.0 0.0 100.0 28.0 0.0 
100.0 29.0 0.0 1.0 30.0 0.0 
2.0 30.0 0.0 3.0 30.0 0.0 
4.0 30.0 0.0 5.0 30.0 0.0 
6.0 30.0 0.0 7.0 30.0 0.0 
8.0 30.0 0.0 9.0 30.0 0.0 
10.0 30.0 0.0 11.0 30.0 0.0 
12.0 30.0 0.0 13.0 30.0 0.0 
14.0 30.0 0.0 15.0 30.0 0.0 
16.0 30.0 0.0 17.0 30.0 0.0 
18.0 30.0 0.0 19.0 30.0 0.0 
20.0 30.0 0.0 21.0 30.0 0.0 
22.0 30.0 0.0 23.0 30.0 0.0 
24.0 30.0 0.0 25.0 30.0 0.0 
26.0 30.0 0.0 27.0 30.0 0.0 
28.0 30.0 0.0 29.0 30.0 0.0 
30.0 30.0 0.0 31.0 30.0 0.0 
32.0 30.0 0.0 33.0 30.0 0.0 
34.0 30.0 0.0 35.0 30.0 0.0 
36.0 30.0 0.0 37.0 30.0 0.0 
38.0 30.0 0.0 39.0 30.0 0.0 
40.0 30.0 0.0 41.0 30.0 0.0 
42.0 30.0 0.0 43.0 30.0 0.0 
44.0 30.0 0.0 45.0 30.0 0.0 
46.0 30.0 0.0 47.0 30.0 0.0 
48.0 30.0 0.0 49.0 30.0 0.0 
50.0 30.0 0.0 51.0 30.0 0.0 
52.0 30.0 0.0 53.0 30.0 0.0 
54.0 30.0 0.0 55.0 30.0 0.0 
56.0 30.0 0.0 57.0 30.0 0.0 
58.0 30.0 0.0 59.0 30.0 0.0 
60.0 30.0 0.0 61.0 30.0 0.0 
62.0 30.0 0.0 63.0 30.0 0.0 
64.0 30.0 0.0 65.0 30.0 0.0 
66.0 30.0 0.0 67.0 30.0 0.0 
68.0 30.0 0.0 69.0 30.0 0.0 
70.0 30.0 0.0 71.0 30.0 0.0 
72.0 30.0 0.0 73.0 30.0 0.0 
74.0 30.0 0.0 75.0 30.0 0.0 
76.0 30.0 0.0 77.0 30.0 0.0 
78.0 30.0 0.0 79.0 30.0 0.0 
80.0 30.0 0.0 81.0 30.0 0.0 
82.0 30.0 0.0 83.0 30.0 0.0 
84.0 30.0 0.0 85.0 30.0 0.0 
86.0 30.0 0.0 87.0 30.0 0.0 
88.0 30.0 0.0 89.0 30.0 0.0 
90.0 30.0 0.0 91.0 30.0 0.0 
92.0 30.0 0.0 93.0 30.0 0.0 
94.0 30.0 0.0 95.0 30.0 0.0 
96.0 30.0 0.0 97.0 30.0 0.0 
98.0 30.0 0.0 99.0 30.0 0.0 
16.0 1.0 0.0 22.0 1.0 0.0 
28.0 1.0 0.0 34.0 1.0 0.0 
40.0 1.0 0.0 46.0 1.0 0.0 
52.0 1.0 0.0 58.0 1.0 0.0 
64.0 1.0 0.0 70.0 1.0 0.0 
76.0 1.0 0.0 82.0 1.0 0.0 
15.0 29.0 0.0 20.0 29.0 0.0 
25.0 29.0 0.0 30.0 29.0 0.0 
35.0 29.0 0.0 40.0 29.0 0.0 
45.0 29.0 0.0 50.0 29.0 0.0 
55.0 29.0 0.0 60.0 29.0 0.0 
65.0 29.0 0.0 70.0 29.0 0.0 
75.0 29.0 0.0 80.0 29.0 0.0 
99.0 13.0 0.0 85.0 29.0 0.0 
1.0 12.0 0.0 1.0 18.0 0.0 
99.0 18.0 0.0 88.0 1.0 0.0 
8.99999999994914 0.999999999973743 0.0 99.0 8.0 0.0 
8.0 29.0 0.0 89.0 29.0 0.0 
99.0 22.0 0.0 0.999995859328856 6.99995963616369 0.0 
1.0 23.0 0.0 93.0 1.0 0.0 
93.0 29.0 0.0 4.99897846844128 0.999401131561401 0.0 
99.0 4.0 0.0 99.0 25.0 0.0 
4.0 29.0 0.0 0.998018130894958 3.99456365118287 0.0 
96.0 29.0 0.0 1.0 27.0 0.0 
2.98755098591844 0.99220568858159 0.0 13.0 1.0 0.0 
97.0 1.0 0.0 99.0 27.0 0.0 
0.999999999429266 9.99999999116626 0.0 1.0 16.0 0.0 
20.0 1.0 0.0 26.0 1.0 0.0 
32.0 1.0 0.0 38.0 1.0 0.0 
44.0 1.0 0.0 50.0 1.0 0.0 
56.0 1.0 0.0 62.0 1.0 0.0 
68.0 1.0 0.0 74.0 1.0 0.0 
80.0 1.0 0.0 86.0 1.0 0.0 
99.0 15.0 0.0 10.0 29.0 0.0 
17.0 29.0 0.0 22.0 29.0 0.0 
27.0 29.0 0.0 32.0 29.0 0.0 
37.0 29.0 0.0 42.0 29.0 0.0 
47.0 29.0 0.0 52.0 29.0 0.0 
57.0 29.0 0.0 62.0 29.0 0.0 
67.0 29.0 0.0 72.0 29.0 0.0 
77.0 29.0 0.0 82.0 29.0 0.0 
0.982043965477184 1.98304218642421 0.0 1.0 29.0 0.0 
99.0 1.0 0.0 99.0 29.0 0.0 
0.983223912217958 0.987621281485569 0.0 0.999949380687591 5.99961944502072 0.0 
0.999999970537249 8.99999955168247 0.0 1.0 14.0 0.0 
1.0 20.0 0.0 1.0 22.0 0.0 
1.0 25.0 0.0 6.99998134409618 0.99999175922936 0.0 
10.9999999999491 0.999999999973743 0.0 15.0 1.0 0.0 
18.0 1.0 0.0 24.0 1.0 0.0 
30.0 1.0 0.0 36.0 1.0 0.0 
42.0 1.0 0.0 48.0 1.0 0.0 
54.0 1.0 0.0 60.0 1.0 0.0 
66.0 1.0 0.0 72.0 1.0 0.0 
78.0 1.0 0.0 84.0 1.0 0.0 
90.0 1.0 0.0 92.0 1.0 0.0 
95.0 1.0 0.0 99.0 2.0 0.0 
99.0 5.0 0.0 99.0 6.0 0.0 
99.0 9.0 0.0 99.0 10.0 0.0 
99.0 11.0 0.0 99.0 16.0 0.0 
99.0 19.0 0.0 99.0 20.0 0.0 
99.0 23.0 0.0 2.0 29.0 0.0 
5.0 29.0 0.0 6.0 29.0 0.0 
11.0 29.0 0.0 12.0 29.0 0.0 
13.0 29.0 0.0 18.0 29.0 0.0 
23.0 29.0 0.0 28.0 29.0 0.0 
33.0 29.0 0.0 38.0 29.0 0.0 
43.0 29.0 0.0 48.0 29.0 0.0 
53.0 29.0 0.0 58.0 29.0 0.0 
63.0 29.0 0.0 68.0 29.0 0.0 
73.0 29.0 0.0 78.0 29.0 0.0 
83.0 29.0 0.0 86.0 29.0 0.0 
87.0 29.0 0.0 90.0 29.0 0.0 
91.0 29.0 0.0 94.0 29.0 0.0 
97.0 29.0 0.0 16.0 2.0 0.0 
22.0 28.0 0.0 27.0 28.0 0.0 
52.0 28.0 0.0 57.0 28.0 0.0 
82.0 28.0 0.0 32.0 28.0 0.0 
37.0 28.0 0.0 62.0 28.0 0.0 
67.0 28.0 0.0 42.0 28.0 0.0 
72.0 28.0 0.0 98.0 15.0 0.0 
12.0 28.0 0.0 98.0 19.0 0.0 
89.0 28.0 0.0 98.0 10.0 0.0 
1.99999999531953 9.999999928767 0.0 93.0 2.0 0.0 
2.0 23.0 0.0 98.0 22.0 0.0 
93.0 28.0 0.0 1.99998433821395 6.9998796865685 0.0 
98.0 5.0 0.0 5.0 28.0 0.0 
85.0 28.0 0.0 96.0 28.0 0.0 
1.98413137230705 0.988341966066793 0.0 0.993390117123437 2.98985247870427 0.0 
0.999537928146093 4.99813727245904 0.0 0.999998442801018 7.99998651096591 0.0 
0.999999999636129 10.9999999944437 0.0 1.0 13.0 0.0 
1.0 15.0 0.0 1.0 17.0 0.0 
1.0 19.0 0.0 1.0 21.0 0.0 
1.0 24.0 0.0 1.0 26.0 0.0 
1.0 28.0 0.0 3.99605406296194 0.997383435909015 0.0 
5.99977465143194 0.999865295129002 0.0 7.9999965299808 0.999998450318377 0.0 
9.99999999988557 0.999999999940923 0.0 11.9999999999936 0.999999999996718 0.0 
14.0 1.0 0.0 17.0 1.0 0.0 
19.0 1.0 0.0 21.0 1.0 0.0 
23.0 1.0 0.0 25.0 1.0 0.0 
27.0 1.0 0.0 29.0 1.0 0.0 
31.0 1.0 0.0 33.0 1.0 0.0 
35.0 1.0 0.0 37.0 1.0 0.0 
39.0 1.0 0.0 41.0 1.0 0.0 
43.0 1.0 0.0 45.0 1.0 0.0 
47.0 1.0 0.0 49.0 1.0 0.0 
51.0 1.0 0.0 53.0 1.0 0.0 
55.0 1.0 0.0 57.0 1.0 0.0 
59.0 1.0 0.0 61.0 1.0 0.0 
63.0 1.0 0.0 65.0 1.0 0.0 
67.0 1.0 0.0 69.0 1.0 0.0 
71.0 1.0 0.0 73.0 1.0 0.0 
75.0 1.0 0.0 77.0 1.0 0.0 
79.0 1.0 0.0 81.0 1.0 0.0 
83.0 1.0 0.0 85.0 1.0 0.0 
87.0 1.0 0.0 89.0 1.0 0.0 
91.0 1.0 0.0 94.0 1.0 0.0 
96.0 1.0 0.0 98.0 1.0 0.0 
99.0 3.0 0.0 99.0 7.0 0.0 
99.0 12.0 0.0 99.0 14.0 0.0 
99.0 17.0 0.0 99.0 21.0 0.0 
99.0 24.0 0.0 99.0 26.0 0.0 
99.0 28.0 0.0 3.0 29.0 0.0 
7.0 29.0 0.0 9.0 29.0 0.0 
14.0 29.0 0.0 16.0 29.0 0.0 
19.0 29.0 0.0 21.0 29.0 0.0 
24.0 29.0 0.0 26.0 29.0 0.0 
29.0 29.0 0.0 31.0 29.0 0.0 
34.0 29.0 0.0 36.0 29.0 0.0 
39.0 29.0 0.0 41.0 29.0 0.0 
44.0 29.0 0.0 46.0 29.0 0.0 
49.0 29.0 0.0 51.0 29.0 0.0 
54.0 29.0 0.0 56.0 29.0 0.0 
59.0 29.0 0.0 61.0 29.0 0.0 
64.0 29.0 0.0 66.0 29.0 0.0 
69.0 29.0 0.0 71.0 29.0 0.0 
74.0 29.0 0.0 76.0 29.0 0.0 
79.0 29.0 0.0 81.0 29.0 0.0 
84.0 29.0 0.0 88.0 29.0 0.0 
92.0 29.0 0.0 95.0 29.0 0.0 
98.0 29.0 0.0 98.0 8.0 0.0 
10.0 28.0 0.0 86.0 28.0 0.0 
90.0 28.0 0.0 22.0 2.0 0.0 
28.0 2.0 0.0 34.0 2.0 0.0 
40.0 2.0 0.0 46.0 2.0 0.0 
52.0 2.0 0.0 58.0 2.0 0.0 
64.0 2.0 0.0 70.0 2.0 0.0 
76.0 2.0 0.0 82.0 2.0 0.0 
2.0 16.0 0.0 85.0 27.0 0.0 
88.0 2.0 0.0 11.9999999999928 1.99999999999631 0.0 
89.0 27.0 0.0 8.99999961400676 1.99999982348209 0.0 
5.9997075717904 1.99979502371096 0.0 1.99934767917968 4.99734291783241 0.0 
16.0 28.0 0.0 46.0 28.0 0.0 
76.0 28.0 0.0 2.0 27.0 0.0 
3.99556896721827 1.99618513026716 0.0 97.0 2.0 0.0 
2.0 20.0 0.0 94.0 28.0 0.0 
24.0 28.0 0.0 29.0 28.0 0.0 
34.0 28.0 0.0 39.0 28.0 0.0 
54.0 28.0 0.0 59.0 28.0 0.0 
64.0 28.0 0.0 69.0 28.0 0.0 
98.0 12.0 0.0 7.0 28.0 0.0 
98.0 24.0 0.0 97.0 28.0 0.0 
20.0 2.0 0.0 26.0 2.0 0.0 
32.0 2.0 0.0 38.0 2.0 0.0 
44.0 2.0 0.0 50.0 2.0 0.0 
56.0 2.0 0.0 62.0 2.0 0.0 
68.0 2.0 0.0 74.0 2.0 0.0 
80.0 2.0 0.0 86.0 2.0 0.0 
1.99999981323511 8.99999805583899 0.0 2.0 14.0 0.0 
91.0 2.0 0.0 98.0 20.0 0.0 
18.0 28.0 0.0 48.0 28.0 0.0 
78.0 28.0 0.0 83.0 28.0 0.0 
87.0 28.0 0.0 91.0 28.0 0.0 
98.0 7.0 0.0 14.0 28.0 0.0 
20.0 28.0 0.0 25.0 28.0 0.0 
30.0 28.0 0.0 35.0 28.0 0.0 
40.0 28.0 0.0 44.0 28.0 0.0 
50.0 28.0 0.0 55.0 28.0 0.0 
60.0 28.0 0.0 65.0 28.0 0.0 
70.0 28.0 0.0 74.0 28.0 0.0 
80.0 28.0 0.0 98.0 13.0 0.0 
1.99999999996321 11.9999999994391 0.0 2.0 18.0 0.0 
98.0 17.0 0.0 98.0 18.0 0.0 
8.0 28.0 0.0 98.0 3.0 0.0 
98.0 4.0 0.0 98.0 25.0 0.0 
3.0 28.0 0.0 4.0 28.0 0.0 
1.9971839117747 3.993137435461 0.0 1.98608618048036 1.98526975763388 0.0 
14.0 2.0 0.0 98.0 26.0 0.0 
98.0 27.0 0.0 1.99983949066551 5.99923056007149 0.0 
2.0 22.0 0.0 2.0 25.0 0.0 
7.99999502590895 1.99999772908988 0.0 10.9999999997687 1.99999999988056 0.0 
15.0 2.0 0.0 18.0 2.0 0.0 
[...]
CELL_DATA 3000

SCALARS element_states float
LOOKUP_TABLE default
1 1 1 1 1 1 0 0 0 0 0 0 0 0 0 0 0 1 0 0 0 0 0 0 0 0 0 0 0 1 
0 0 0 0 0 1 0 0 1 0 0 0 0 0 0 1 1 1 0 0 0 1 0 0 0 0 1 1 1 1 
1 1 1 0 0 0 0 0 0 0 0 0 0 0 0 0 0 0 0 0 0 1 1 1 1 1 1 1 1 1 
1 1 1 1 1 1 1 1 1 1 1 1 1 1 1 1 1 1 1 1 1 1 1 1 1 1 1 1 1 1 
1 1 1 1 1 1 1 1 1 1 1 1 1 1 1 1 1 1 1 1 1 1 1 1 1 1 1 1 1 1 
1 1 1 1 1 1 1 1 1 1 1 1 1 1 1 1 1 1 1 1 1 1 1 1 1 1 1 1 1 1 
1 1 1 1 1 1 1 1 0 0 0 0 0 0 0 0 0 0 0 0 0 0 0 0 0 0 0 0 0 0 
0 0 0 1 1 1 1 1 1 1 1 1 1 1 1 1 1 1 1 1 1 1 1 1 1 1 1 1 1 1 
1 1 1 1 1 1 1 1 1 1 1 1 1 1 1 1 1 1 1 1 1 1 1 1 1 1 1 1 1 1 
1 1 1 1 1 1 1 1 1 1 1 1 1 1 1 1 1 1 1 1 0 1 0 0 0 0 0 0 0 0 
0 0 0 0 0 0 0 0 0 0 0 1 1 1 1 1 1 1 1 1 1 1 1 1 1 0 0 0 1 1 
1 1 1 0 1 1 1 1 1 1 0 1 1 1 1 1 1 1 1 1 0 0 1 1 1 1 1 1 1 1 
1 1 0 0 0 0 0 0 0 0 0 0 0 1 1 1 1 1 1 1 1 1 1 1 1 1 1 1 1 1 
1 1 1 1 1 1 1 1 1 1 1 0 0 0 0 0 0 1 1 1 1 1 0 1 1 1 1 1 1 0 
1 1 0 0 1 0 0 0 0 0 0 0 0 0 0 0 0 0 0 0 0 0 0 0 0 1 1 1 1 1 
1 1 1 1 1 1 1 1 1 1 1 1 1 1 1 1 1 1 1 1 1 1 1 1 1 1 1 1 1 1 
1 1 1 1 1 1 1 1 1 1 1 1 1 1 1 1 1 1 1 1 1 1 1 1 1 1 1 1 1 1 
1 1 1 1 1 1 1 1 1 1 1 1 1 1 1 1 1 1 1 0 0 0 0 0 0 1 1 1 1 1 
1 1 1 1 1 1 1 1 1 1 1 1 0 0 0 0 0 0 1 1 0 0 0 0 0 0 0 0 0 0 
1 1 1 0 0 1 1 0 0 0 0 0 1 1 1 0 0 0 0 0 0 1 1 1 1 1 1 1 1 1 
1 1 1 0 0 0 0 0 1 1 0 0 1 1 1 1 0 1 1 0 0 1 1 1 1 0 0 0 0 1 
0 0 0 0 0 0 0 1 1 1 1 1 1 1 1 1 1 1 1 1 1 1 1 1 1 1 1 1 1 1 
1 1 1 1 1 1 0 0 1 1 1 1 1 1 1 1 1 1 1 1 0 0 0 0 0 0 0 0 0 0 
0 0 0 0 1 1 0 1 0 0 1 1 0 1 0 0 0 1 0 0 0 0 1 1 1 1 1 1 1 1 
1 1 1 1 0 0 0 0 0 0 0 1 1 1 1 1 1 1 1 1 1 1 1 1 1 1 1 1 1 1 
1 1 1 1 1 1 1 1 1 1 1 1 1 0 0 0 0 0 0 0 0 0 0 0 0 0 0 0 0 0 
0 0 0 0 0 0 0 0 0 0 0 0 0 0 0 0 0 0 0 0 0 0 1 0 1 1 1 1 1 1 
1 1 0 0 0 1 0 0 0 0 0 1 1 1 1 1 1 1 1 0 0 0 0 0 0 0 0 0 0 0 
1 1 1 0 0 1 1 1 1 1 1 1 0 0 0 0 0 0 0 0 0 0 0 0 0 1 0 0 1 1 
1 0 0 0 0 0 0 0 1 1 0 0 1 1 0 1 1 1 0 0 0 0 0 0 1 1 1 1 1 1 
0 0 0 0 1 1 1 0 0 0 0 1 0 1 0 1 1 1 0 0 1 0 0 1 0 0 1 1 0 0 
1 1 0 1 1 0 0 1 1 1 1 1 1 1 1 1 1 0 0 0 0 0 0 0 0 0 0 0 0 0 
0 0 0 0 0 0 0 1 1 1 0 0 0 0 0 1 1 1 0 0 1 1 0 0 1 0 0 1 0 0 
0 1 1 1 1 0 0 0 1 1 1 1 1 0 0 0 0 0 1 0 0 0 0 1 1 0 0 0 0 0 
1 1 0 0 0 0 0 0 1 0 1 0 0 0 1 1 0 0 1 0 0 0 0 1 0 1 1 1 1 1 
1 1 1 1 1 1 0 0 0 0 0 0 0 1 1 0 0 0 0 1 1 1 1 1 1 1 1 1 0 0 
0 0 0 0 0 0 0 0 1 1 1 0 0 0 0 1 1 1 1 1 1 0 0 0 0 0 0 0 0 0 
0 0 0 0 0 1 1 1 0 0 0 0 1 0 1 1 1 0 1 1 0 1 1 1 0 0 0 0 0 0 
0 0 1 1 0 0 1 1 1 0 0 1 0 1 0 0 0 0 0 1 0 0 1 0 1 1 1 1 0 0 
0 1 0 1 1 1 1 0 0 1 0 1 0 0 1 1 0 0 1 0 1 1 0 0 0 0 0 0 1 0 
1 0 1 1 0 1 0 0 1 1 1 1 0 0 0 0 0 0 0 0 0 0 0 0 0 0 1 0 0 1 
1 0 0 0 0 1 0 1 1 0 0 0 0 0 0 1 1 1 0 0 0 1 1 0 0 0 1 1 1 1 
0 1 0 0 1 1 1 1 1 0 1 0 1 0 0 1 0 1 0 1 1 0 0 0 1 0 0 0 0 0 
0 0 1 1 1 0 1 1 0 0 1 1 1 1 1 1 1 0 0 1 0 1 0 0 0 0 1 1 1 0 
0 0 0 0 0 0 1 0 1 0 0 0 1 1 0 0 1 1 1 1 1 1 0 1 1 1 1 0 0 0 
0 0 0 1 1 1 0 0 0 0 0 0 0 1 0 0 0 0 0 0 0 0 1 1 0 0 1 1 0 0 
0 0 0 0 0 0 1 1 0 0 0 0 1 1 1 1 1 1 0 0 0 0 0 0 0 0 1 1 1 0 
1 0 0 0 0 1 1 0 1 1 0 1 0 1 1 0 0 0 0 1 1 1 1 0 0 0 0 0 0 0 
1 1 1 1 0 0 0 0 0 0 0 0 0 0 1 0 0 0 1 1 0 0 0 1 1 0 0 0 0 0 
0 0 0 0 1 1 1 1 1 1 1 0 1 0 0 1 0 0 0 0 0 0 0 0 0 0 1 1 0 0 
0 1 1 1 1 0 0 0 1 1 1 1 1 0 0 0 0 0 0 1 1 0 0 1 0 0 0 0 1 1 
0 0 0 1 0 0 0 0 0 0 0 0 1 1 1 0 0 0 1 1 0 1 0 0 0 1 0 1 0 1 
0 1 1 1 1 1 0 0 1 0 0 0 1 1 1 0 1 1 0 1 1 0 0 0 1 1 0 0 0 0 
0 0 0 0 0 0 0 0 0 0 0 1 0 1 0 0 1 0 0 0 0 1 1 1 0 1 0 0 0 0 
0 0 1 1 0 0 0 0 0 0 0 0 1 1 1 1 0 0 0 0 0 1 1 1 1 1 0 0 0 0 
0 0 0 0 0 0 0 0 0 0 0 1 1 0 0 0 1 0 0 1 0 0 0 1 0 0 0 1 1 0 
0 0 1 0 0 0 0 1 0 0 1 1 0 1 1 0 0 1 1 0 0 1 1 1 0 0 0 1 1 1 
0 0 0 0 0 0 1 1 1 1 0 0 0 0 0 0 0 0 0 0 1 0 0 0 0 1 1 0 0 0 
0 0 1 0 0 0 0 1 1 0 0 0 0 1 1 0 0 0 1 0 0 1 1 0 0 0 0 1 0 0 
0 0 1 1 1 0 0 1 1 1 0 0 0 0 0 0 1 0 1 0 0 0 0 0 1 0 0 0 0 0 
0 0 0 0 0 0 0 0 1 0 1 1 0 0 0 0 0 0 0 0 1 0 0 0 0 0 1 0 0 1 
1 1 0 1 1 1 1 0 0 0 0 0 0 0 0 1 1 1 0 0 0 0 0 0 0 0 0 0 0 0 
0 0 1 1 1 1 1 0 0 1 1 0 0 0 0 0 0 0 0 0 0 0 0 1 0 0 0 0 0 1 
0 0 0 0 0 0 1 0 0 0 0 0 0 0 0 0 0 0 0 0 1 0 1 0 0 0 0 1 1 0 
0 0 0 0 0 0 0 0 0 0 1 1 0 0 1 0 0 0 0 0 0 1 1 1 0 0 1 1 1 0 
1 1 0 1 1 0 0 0 0 1 0 0 1 0 0 0 1 1 0 0 1 1 0 1 1 0 0 0 0 0 
0 0 0 0 0 0 1 1 1 0 1 0 0 0 0 0 0 0 0 0 0 0 0 0 1 0 0 0 0 1 
0 0 0 0 1 0 1 1 0 0 0 0 0 0 0 0 0 1 0 0 0 0 0 0 0 0 1 1 1 0 
0 0 0 0 1 0 0 0 0 0 1 1 0 0 0 0 0 0 0 0 0 1 1 0 1 0 0 0 1 0 
0 0 0 0 0 0 0 0 0 0 0 0 1 1 0 0 0 0 0 0 0 1 1 0 0 0 0 0 0 0 
1 0 0 1 0 0 0 1 1 0 1 1 1 0 0 0 0 0 0 0 0 0 1 0 0 1 1 1 1 1 
0 0 0 0 0 1 1 0 0 0 1 1 0 0 0 0 0 0 1 1 0 0 0 0 0 0 1 0 0 0 
1 0 0 0 0 0 0 0 0 0 0 0 0 0 0 0 1 0 0 0 1 1 0 1 0 0 1 1 0 1 
0 0 0 0 0 0 0 0 0 1 0 0 0 0 0 0 0 0 0 0 1 0 0 0 1 0 0 0 0 0 
0 0 0 0 1 0 0 1 1 1 1 1 0 0 1 1 1 1 0 0 0 1 0 1 0 0 0 0 0 1 
1 0 1 0 1 1 0 1 1 0 0 0 0 0 0 0 0 0 0 0 0 0 0 1 1 0 0 0 0 0 
0 1 1 0 1 1 0 0 0 0 0 0 0 0 0 0 0 0 0 0 1 0 0 0 0 0 0 1 0 0 
0 0 1 1 1 0 0 0 0 0 0 1 1 0 0 0 0 0 0 0 1 1 1 0 0 0 0 1 0 0 
0 0 0 0 1 1 1 0 0 0 0 0 0 0 0 0 0 0 0 0 0 1 1 1 1 0 0 1 0 0 
0 0 0 1 1 0 0 0 0 0 1 1 0 1 0 0 0 0 0 0 0 0 0 0 0 0 0 0 0 0 
0 1 1 0 0 0 0 0 0 0 0 0 0 0 0 0 0 0 1 1 0 0 1 0 0 1 1 0 0 1 
0 1 1 1 0 1 1 0 0 1 0 1 0 1 0 0 0 0 0 0 0 1 1 1 1 1 1 0 1 0 
0 1 1 1 1 1 0 1 0 0 0 0 0 0 0 0 0 1 0 0 0 0 0 0 0 1 0 0 0 0 
0 0 0 0 0 0 0 0 0 1 1 0 0 0 0 0 0 0 0 1 0 0 0 1 0 0 0 0 0 0 
0 0 0 0 0 0 0 0 0 0 0 0 0 0 0 1 0 1 0 0 0 0 0 1 1 0 0 0 1 0 
1 1 1 0 1 0 1 0 0 1 0 0 0 0 1 0 0 1 0 0 0 0 0 0 0 0 0 0 0 1 
0 1 0 0 0 0 1 0 0 1 1 0 0 0 1 0 0 0 0 0 0 0 0 0 0 0 0 0 0 0 
0 1 0 1 0 1 0 0 0 1 1 1 0 0 0 0 0 0 0 0 0 0 1 0 0 0 0 0 0 1 
0 0 0 0 1 0 0 0 0 0 1 1 1 1 0 0 1 1 1 1 0 0 0 1 0 0 0 0 0 0 
0 0 0 0 0 0 0 0 0 0 0 0 0 0 0 0 0 0 0 0 0 0 0 0 0 0 0 0 0 1 
1 1 1 0 0 0 1 1 0 0 0 1 1 0 1 1 0 0 0 0 0 0 0 0 0 0 0 0 0 0 
0 0 0 0 0 0 1 0 0 0 0 1 1 1 0 0 0 0 0 1 1 0 0 1 0 0 0 0 0 0 
1 0 1 0 0 0 0 0 1 0 0 0 0 0 0 0 0 0 1 1 0 1 0 0 0 0 0 0 0 0 
1 0 0 0 0 1 0 0 0 0 0 0 0 0 0 0 0 0 0 1 1 0 0 0 1 0 1 1 0 0 
0 0 0 0 1 1 0 0 0 1 1 0 0 0 0 0 0 0 1 1 1 1 1 1 0 0 0 0 0 0 
0 0 0 1 0 0 0 0 0 0 0 0 0 0 0 0 0 0 0 0 0 0 0 0 0 1 1 1 1 1 
1 0 0 0 0 1 1 0 1 0 0 0 0 0 0 0 0 0 0 0 0 0 0 0 0 1 0 0 0 0 
0 0 0 0 0 0 0 0 0 1 0 0 0 0 0 0 1 1 1 0 0 0 0 0 0 0 0 0 0 0 
0 0 1 0 0 0 1 1 0 0 0 0 0 0 0 0 0 0 0 0 0 0 0 0 0 0 0 0 0 0 
0 0 0 1 0 0 0 0 0 0 0 0 0 0 0 0 0 0 0 0 0 0 0 0 0 0 0 1 1 1 


SCALARS sensitivity_number float
LOOKUP_TABLE default
0.010720911571953713 0.00904095201330234 0.0074981053639928096 0.009033272006810538 0.007491611072171704 0.0028116639047633158 
0.0012671925222778474 4.048943059197175e-08 4.109334409857609e-08 4.084493707297869e-08 4.1568793857229586e-08 4.1409785266016116e-08 
4.2440707394004805e-08 2.498939538997947e-11 2.2169338890769714e-11 1.3620854902648362e-11 1.1597527717411716e-11 0.0028116749333357465 
0.0012672222272553516 0.0012672094748317404 0.0012671794130166831 1.6343764536790972e-08 1.6385823831057256e-08 1.7186490730588353e-08 
1.6861833202054176e-08 1.70073228940703e-08 1.7603247274372485e-08 0.0020965864693533952 1.775266659368995e-08 0.00281448822445617 
1.7734089367318677e-08 0.0008021602920228297 0.00012081215584966336 3.896556254442398e-08 0.0003068671717147219 0.004238195713174983 
0.0019743447497655654 4.096386395706127e-08 0.0032091218726457453 3.926477484103839e-08 0.0010176491679148168 0.0015377362018575884 
0.0028772358250880687 4.1998991719553236e-08 4.1331608549566825e-08 0.0053711294224954 0.0030908974797201403 0.0036298983528616742 
0.000414072028853872 4.170687209886221e-08 4.038525947884688e-08 0.002998070279410695 4.213415838550308e-08 4.311641573873634e-08 
4.4709221978009024e-08 4.308351280020394e-08 0.011367114903635279 0.010719221285221564 0.007503247560847296 0.009043321504798332 
0.0061087718820270025 0.004859740229432512 0.0027136241822083604 0.001406952357375774 1.720933850824241e-08 1.906252160028451e-08 
2.150540209148949e-08 2.0157503294997377e-08 2.2780750420831188e-08 2.4094265523680382e-08 2.6853779202601843e-08 2.544175475167781e-08 
2.9995266666003786e-08 2.835819443848473e-08 3.181849268710747e-08 3.3837994642108665e-08 3.612924966014989e-08 3.846724948319643e-08 
4.239380331621939e-08 4.48166260970765e-08 0.00035775306798858583 0.007640735056488486 0.0026952440032358264 0.017791708927018944 
0.04551811162322642 0.0357490201840239 0.011531900330126656 0.011524314210036454 0.011526470652364507 0.011523161808956213 
0.0115230771721888 0.011523131361836358 0.011523097465402775 0.01152315897368415 0.011523174080802582 0.011523120801705485 
0.011523170623394757 0.01152295720165748 0.011522560852121983 0.011521721049725417 0.011520157555313191 0.011517571466424332 
0.011509906676313294 0.011513897467283504 0.011517261086655633 0.011508510496404839 0.011552366638366058 0.011642635768348555 
0.012147157508130009 0.011827805362946042 0.01319920276474462 0.012614909368925589 0.01381471974267078 0.014345363473136233 
0.014788890309539395 0.01468670214854748 0.014248991398126536 0.014653925297292276 0.013451579851640104 0.012183876885852117 
0.008729467516162943 0.010521126908512458 0.006095346750422095 0.007211973024687807 0.005299258192715603 0.0046375708654502225 
0.0035836181806996204 0.004044890264371484 0.003252584500964791 0.003317044204477484 0.0033986117707463697 0.0037714878239233306 
0.003885906473054688 0.003901503890224156 0.0038910271183721814 0.003890357366859144 0.0038900916745867116 0.0038899831608707135 
0.00388960179349709 0.0038897636812790775 0.003889378893616377 0.003889470310126388 0.0038893234953533066 0.0038893054894550993 
0.0038893811284682112 0.0038893245241325212 0.0038896067978785513 0.0038894750687676455 0.0038897765452363987 0.0038899850821364564 
0.0038905197863069426 0.003890232607167397 0.003891213931079915 0.003890846801838289 0.003891621296385586 0.003892069020109065 
0.003893085826881875 0.0038925571313329892 0.0038942645436611254 0.0038936549166851556 0.0038949147120688377 0.0038956055460262137 
0.0038971090769205096 0.003896337064333627 0.0038987750214749357 0.0038979217926578013 0.0038996690775604 0.003900603555949478 
0.003902595052697901 0.0039015790456542413 0.0039047483971538094 0.003903652241294019 0.003905892405053582 0.003907068722485152 
0.003908243234855397 0.003909419004487839 0.003913108156207835 0.003908094949865424 0.00389374148102999 0.0033103342669494706 
0.0037280064929619597 0.0038496422669934416 0.020662546398176763 0.012725889505077016 0.02009929350312511 0.005617815228512803 
0.009677542968613284 0.0030701987282205994 0.0009219835699884485 6.048573048947245e-09 1.663521909667579e-08 2.8722079611730947e-09 
1.7457256240563633e-09 1.0691545120382183e-09 3.6765407847345503e-10 6.419081277553913e-10 2.0251101221651662e-10 1.0987076113927253e-10 
6.264471886854267e-11 3.821337456484259e-11 4.2593265129750494e-11 4.1370823020066754e-11 4.6347780621503056e-11 4.981131107221999e-11 
4.969661269616788e-11 4.642594575374105e-11 3.214546838139663e-11 4.0161662318337095e-11 2.3648555205632295e-11 1.574090029082566e-11 
9.113785093580496e-12 4.221734726202914e-12 2.141704750229237e-12 0.04901144180455329 0.024047740869724606 0.03167024110546838 
0.019796399364410466 0.016699402307830326 0.013314360209443642 0.014631117816768301 0.012509496200945146 0.011956957501820228 
0.01144262390379281 0.010863703458533987 0.01021281470196665 0.008852834302682706 0.009529926375329437 0.00820148287853298 
0.007604187714051986 0.007118038226505263 0.006610232385088292 0.006787279139733428 0.006499536325930565 0.006357641106976921 
0.006126381003233885 0.00544376940113505 0.005809596150243884 0.005064647852599637 0.004702103592169265 0.004391575300537329 
0.004126298840704948 0.004180252626905629 0.00428379388915069 0.004696661330818627 0.00534011713801984 0.00654524241348564 
0.00605423490802543 0.006671246971623887 0.006681182765868232 0.006675392226192722 0.006639860305457116 0.006661287960306483 
0.006612662878810459 0.006585720378360783 0.006559318124522297 0.006506976072958015 0.006533099430194095 0.006480944093692361 
0.006455009899000638 0.006429174270032321 0.006377798782703239 0.006403436919917403 0.006352261166555104 0.006326826259779409 
0.006301495835435578 0.006251157251457632 0.006276272191406623 0.006226153528365768 0.006201260974978755 0.006176478921915936 
0.0061272741596578775 0.006151793747982342 0.006103045064376956 0.006079628714466074 0.0060531824469430145 0.005979653590178817 
0.006020067470892774 0.005976068493294254 0.006020403766090909 0.005918696410699972 0.005873825302199485 0.005860470456653938 
0.0059111620089557695 0.005770408167395803 0.005725843019747504 0.005925180074396598 0.0059074471910130774 0.005598282581375297 
0.004996682064510225 0.004343530615971003 0.0010441840628732776 0.0030708512851367804 2.7757151947876e-08 1.421540855913258e-08 
6.552949693099714e-09 1.8951977667098267e-09 3.5287753183387994e-09 9.997597419684106e-10 5.173113548653349e-10 1.1984318208682257e-10 
2.554727255935433e-10 5.845002291859603e-11 3.679696204716239e-11 3.3037488331655586e-11 3.2614442705941354e-11 2.824877371639536e-11 
3.2101208816753326e-11 2.220057766352481e-11 1.5389924830121187e-11 4.235064293660166e-12 9.092154379673551e-12 0.007824189898702306 
0.008292964852063307 0.005353754310020139 0.004045630178171284 0.005805663649785025 0.006239853778558736 0.006226182062063463 
0.006227968038126695 0.006217405573689727 0.006218389708620231 0.006206622927191961 0.0061078003629626695 0.005475758321398265 
0.005507508435838146 5.929670592439259e-10 4.8583639067355484e-11 6.324144129203755e-11 0.011763842373755844 0.010700515446121274 
0.01070357552199232 0.003170565816193812 0.004950947345038936 2.54509047727433e-11 0.017675561673839893 0.02151226401069309 
0.0075009741246811435 0.0061047654803575825 0.010699386744787312 0.01069938154883847 1.5392515735091285e-11 0.007354287469836556 
0.006915530586858108 0.006224554394923035 0.006223088573118002 0.005136108366555648 0.004796615191983077 0.009047161464720815 
0.0028120939288149797 0.004855011094998164 1.8976985404028453e-08 4.072178279810882e-08 0.01069957234127664 0.010699377614604424 
0.010699382291599084 0.010699190770813128 0.010699337376590474 0.0025575448288343242 0.0025574877241799922 0.002558066485762753 
0.013493112492509847 0.006521048899298269 0.002730518582860934 0.0008871059124605709 1.9342420901931476e-09 2.735860629853908e-09 
1.3614750738033598e-09 9.241116151948224e-10 1.4650933612169344e-10 9.288116926754141e-11 4.197320537501609e-11 3.363306456568897e-11 
2.992202075987806e-11 0.03348953733794548 0.026816964987310475 0.014908930419041023 0.012989241077837317 0.009765560916138472 
0.010220178409530841 0.009264564774897866 0.008768686285728383 0.005965368310984294 0.00566780632029862 0.004435420808822598 
0.004191033040286109 0.004677458886877916 0.005248915512237485 0.006219222408842569 0.0062332402869316825 0.00623201717920659 
0.00622990883347207 0.006218204549488022 0.00621772184974884 0.006217451447199716 0.006217791857691184 0.006217325072041087 
0.006206991901353134 0.006108694787872693 0.006198751087693125 0.006029180163470851 0.005622842589048675 6.724981331625887e-09 
1.2534627429745106e-09 7.442465956072035e-10 1.1997538071152283e-10 6.440315082975229e-11 1.4863689432860233e-11 0.010698810531180752 
0.0062027146001158925 0.004731465552855517 0.006218852940392712 0.0062172724717088 1.4304485272435433e-08 0.00424378032371084 
0.006262335592563974 0.006220574915762586 0.005888462143166032 0.006234475731993731 0.006037930804145233 2.343769093220704e-10 
0.007280781958555285 0.00743524593803032 2.2952638602245211e-10 2.0089404447153195e-08 0.002561140933549364 4.141659712947627e-08 
3.647452466200955e-11 2.920607421730113e-11 0.0012671859339876783 2.139590248544811e-09 1.8924654301091887e-11 1.3232041437052757e-11 
1.7262504340900587e-08 2.1403807769852935e-08 2.3941344959149077e-08 2.2656893508909665e-08 2.6627539268444637e-08 2.5256280101451798e-08 
2.8075441943947343e-08 2.963373824551669e-08 3.3294610478870927e-08 3.13575416561852e-08 3.546620788026979e-08 3.7626090716775696e-08 
0.0008538561198662544 0.008812371945529736 0.0037623191188060298 0.01847649983437236 0.01071026130491975 0.010699373149089997 
0.010699374966103917 0.010699378983909054 0.01069797431973126 0.010693460022115207 0.010696333804070495 0.010684897630496145 
0.010689185375336776 0.010687385980883599 0.010715110499870941 0.010993844731952668 0.010803570261664466 0.01172590374452086 
0.011310403620066618 0.012158566375843128 0.012490923659880361 0.01251317286628867 0.012619832567388503 0.011860641806512104 
0.012229637035264208 0.01136838288095312 0.010533350021793439 0.008078900162632305 0.009341666712888436 0.00606806583727277 
0.006887411886897511 0.005432143811927381 0.00476873762276902 0.003557685960837812 0.00411260974902724 0.002932070507772873 
0.003152996463376056 0.0028234519941183426 0.0025626408787528003 0.002576460176354764 0.0025849275215893567 0.0025782187510586963 
0.002578751982796769 0.002576872907070142 0.0025759938837808228 0.002574159439887955 0.002575063724756913 0.002572425767298366 
0.002573279877838651 0.00257159249063311 0.0025707798036248746 0.0025692217146631004 0.002569989690723961 0.002567746024084043 
0.002568474217083818 0.0025670387077181135 0.002566354033813102 0.0025650583645095083 0.002565693697962953 0.002563864833923242 
0.0025644485888489717 0.002563307287522499 0.0025627759186865667 0.002561792218505912 0.002562270993616378 0.002560913922821755 
0.0025613399356119353 0.0025605142257953723 0.0025601409474585463 0.002559473640250275 0.0025597940582545078 0.002558911849224592 
0.002559179557799932 0.002558670589556364 0.002558455775917921 0.0025581058480070844 0.0025582674773825405 0.002557863500854756 
0.0025579698884352115 0.0025577732924078316 0.002557757893445799 0.0025244732272085755 0.0027712807444094456 0.002358164621528579 
0.0043016708372985105 0.00012128929842470694 3.729777441172462e-10 3.8827316477210265e-11 2.0509149084780373e-11 6.131252041389089e-12 
1.0447667098207853e-11 0.010611999273837944 0.011056472647896807 0.006608153083605667 0.006437290855264922 0.006345161598657264 
0.005040848979139263 0.004049855131186144 0.006227025771485009 0.006237385139157784 0.006221784733531868 0.006220643702188911 
0.006219666173351262 0.006217256212907776 0.006219345455122052 0.006120875903574151 0.005852426631150656 0.003710949669573269 
0.003422987829324945 0.0009899156665968071 3.744677573846393e-09 4.245049629898407e-10 3.9333298981744266e-11 1.0356701917480775e-11 
0.00762790940854415 0.0078108028727393464 1.7895455694555036e-09 2.5684851584239526e-10 2.7434853442853978e-08 2.5836632147100195e-09 
2.8462613341649003e-09 0.0013981205736791097 0.0014035460166460711 4.688367252972374e-10 7.617275743835406e-10 4.4499571302545143e-10 
0.009022624013148173 0.01826634556761475 0.003740514906778955 3.383821941729782e-08 1.571666461037228e-09 0.008735866936120265 
0.009871276887443098 1.3307091169810255e-11 1.4381717205200639e-11 0.0013927064623870532 1.8842826982223035e-08 4.6353583602557314e-11 
0.006672840375734634 0.003955257368643268 0.005463547129143445 3.860197122321991e-09 2.0541654341354418e-05 1.2292715315819054e-09 
7.890628764433427e-10 1.2929721602237545e-10 0.0009775221566933503 0.002489790098705981 0.007189081169343144 0.005133049391610846 
0.004006992265520749 0.0037947041204991405 0.003834230640978575 0.0038934263881295747 0.004066754828851758 0.004149103821846942 
0.004186041077636544 0.004030034954740597 0.0041100724306987624 1.0999753251861972e-09 2.8821272438427428e-08 3.0304327333744884e-08 
7.89521803241155e-11 1.3235499805966254e-10 0.00472252827640395 0.004516404856446706 1.4837836951280725e-11 1.3573143737852231e-11 
0.013598930257590286 0.016127246334602954 0.006103829462342506 0.00902296908376582 1.4973435326632046e-11 0.002812239287721967 
0.004854928400839137 3.790966106257776e-08 3.595426830292028e-08 0.009022259496377822 0.009022328605496928 0.009022217352421796 
0.009023849523608246 0.0014143958283384553 0.0014090066841577402 0.0014252977658156093 0.0014200602045895824 0.0030031458900790877 
2.473496208197735e-09 0.0002181985090883452 2.119868833956419e-09 3.4209792355625514e-10 2.1610137586663352e-10 1.3271432947377918e-11 