# vtk DataFile Version 3.0
Results from optimization
ASCII
DATASET UNSTRUCTURED_GRID

POINTS 3131 float
0.0 0.0 0.0 0.0 30.0 0.0 
100.0 0.0 0.0 100.0 30.0 0.0 
0.0 1.0 0.0 0.0 2.0 0.0 
0.0 3.0 0.0 0.0 4.0 0.0 
0.0 5.0 0.0 0.0 6.0 0.0 
0.0 7.0 0.0 0.0 8.0 0.0 
0.0 9.0 0.0 0.0 10.0 0.0 
0.0 11.0 0.0 0.0 12.0 0.0 
0.0 13.0 0.0 0.0 14.0 0.0 
0.0 15.0 0.0 0.0 16.0 0.0 
0.0 17.0 0.0 0.0 18.0 0.0 
0.0 19.0 0.0 0.0 20.0 0.0 
0.0 21.0 0.0 0.0 22.0 0.0 
0.0 23.0 0.0 0.0 24.0 0.0 
0.0 25.0 0.0 0.0 26.0 0.0 
0.0 27.0 0.0 0.0 28.0 0.0 
0.0 29.0 0.0 1.0 0.0 0.0 
2.0 0.0 0.0 3.0 0.0 0.0 
4.0 0.0 0.0 5.0 0.0 0.0 
6.0 0.0 0.0 7.0 0.0 0.0 
8.0 0.0 0.0 9.0 0.0 0.0 
10.0 0.0 0.0 11.0 0.0 0.0 
12.0 0.0 0.0 13.0 0.0 0.0 
14.0 0.0 0.0 15.0 0.0 0.0 
16.0 0.0 0.0 17.0 0.0 0.0 
18.0 0.0 0.0 19.0 0.0 0.0 
20.0 0.0 0.0 21.0 0.0 0.0 
22.0 0.0 0.0 23.0 0.0 0.0 
24.0 0.0 0.0 25.0 0.0 0.0 
26.0 0.0 0.0 27.0 0.0 0.0 
28.0 0.0 0.0 29.0 0.0 0.0 
30.0 0.0 0.0 31.0 0.0 0.0 
32.0 0.0 0.0 33.0 0.0 0.0 
34.0 0.0 0.0 35.0 0.0 0.0 
36.0 0.0 0.0 37.0 0.0 0.0 
38.0 0.0 0.0 39.0 0.0 0.0 
40.0 0.0 0.0 41.0 0.0 0.0 
42.0 0.0 0.0 43.0 0.0 0.0 
44.0 0.0 0.0 45.0 0.0 0.0 
46.0 0.0 0.0 47.0 0.0 0.0 
48.0 0.0 0.0 49.0 0.0 0.0 
50.0 0.0 0.0 51.0 0.0 0.0 
52.0 0.0 0.0 53.0 0.0 0.0 
54.0 0.0 0.0 55.0 0.0 0.0 
56.0 0.0 0.0 57.0 0.0 0.0 
58.0 0.0 0.0 59.0 0.0 0.0 
60.0 0.0 0.0 61.0 0.0 0.0 
62.0 0.0 0.0 63.0 0.0 0.0 
64.0 0.0 0.0 65.0 0.0 0.0 
66.0 0.0 0.0 67.0 0.0 0.0 
68.0 0.0 0.0 69.0 0.0 0.0 
70.0 0.0 0.0 71.0 0.0 0.0 
72.0 0.0 0.0 73.0 0.0 0.0 
74.0 0.0 0.0 75.0 0.0 0.0 
76.0 0.0 0.0 77.0 0.0 0.0 
78.0 0.0 0.0 79.0 0.0 0.0 
80.0 0.0 0.0 81.0 0.0 0.0 
82.0 0.0 0.0 83.0 0.0 0.0 
84.0 0.0 0.0 85.0 0.0 0.0 
86.0 0.0 0.0 87.0 0.0 0.0 
88.0 0.0 0.0 89.0 0.0 0.0 
90.0 0.0 0.0 91.0 0.0 0.0 
92.0 0.0 0.0 93.0 0.0 0.0 
94.0 0.0 0.0 95.0 0.0 0.0 
96.0 0.0 0.0 97.0 0.0 0.0 
98.0 0.0 0.0 99.0 0.0 0.0 
100.0 1.0 0.0 100.0 2.0 0.0 
100.0 3.0 0.0 100.0 4.0 0.0 
100.0 5.0 0.0 100.0 6.0 0.0 
100.0 7.0 0.0 100.0 8.0 0.0 
100.0 9.0 0.0 100.0 10.0 0.0 
100.0 11.0 0.0 100.0 12.0 0.0 
100.0 13.0 0.0 100.0 14.0 0.0 
100.0 15.0 0.0 100.0 16.0 0.0 
100.0 17.0 0.0 100.0 18.0 0.0 
100.0 19.0 0.0 100.0 20.0 0.0 
100.0 21.0 0.0 100.0 22.0 0.0 
100.0 23.0 0.0 100.0 24.0 0.0 
100.0 25.0 0.0 100.0 26.0 0.0 
100.0 27.0 0.0 100.0 28.0 0.0 
100.0 29.0 0.0 1.0 30.0 0.0 
2.0 30.0 0.0 3.0 30.0 0.0 
4.0 30.0 0.0 5.0 30.0 0.0 
6.0 30.0 0.0 7.0 30.0 0.0 
8.0 30.0 0.0 9.0 30.0 0.0 
10.0 30.0 0.0 11.0 30.0 0.0 
12.0 30.0 0.0 13.0 30.0 0.0 
14.0 30.0 0.0 15.0 30.0 0.0 
16.0 30.0 0.0 17.0 30.0 0.0 
18.0 30.0 0.0 19.0 30.0 0.0 
20.0 30.0 0.0 21.0 30.0 0.0 
22.0 30.0 0.0 23.0 30.0 0.0 
24.0 30.0 0.0 25.0 30.0 0.0 
26.0 30.0 0.0 27.0 30.0 0.0 
28.0 30.0 0.0 29.0 30.0 0.0 
30.0 30.0 0.0 31.0 30.0 0.0 
32.0 30.0 0.0 33.0 30.0 0.0 
34.0 30.0 0.0 35.0 30.0 0.0 
36.0 30.0 0.0 37.0 30.0 0.0 
38.0 30.0 0.0 39.0 30.0 0.0 
40.0 30.0 0.0 41.0 30.0 0.0 
42.0 30.0 0.0 43.0 30.0 0.0 
44.0 30.0 0.0 45.0 30.0 0.0 
46.0 30.0 0.0 47.0 30.0 0.0 
48.0 30.0 0.0 49.0 30.0 0.0 
50.0 30.0 0.0 51.0 30.0 0.0 
52.0 30.0 0.0 53.0 30.0 0.0 
54.0 30.0 0.0 55.0 30.0 0.0 
56.0 30.0 0.0 57.0 30.0 0.0 
58.0 30.0 0.0 59.0 30.0 0.0 
60.0 30.0 0.0 61.0 30.0 0.0 
62.0 30.0 0.0 63.0 30.0 0.0 
64.0 30.0 0.0 65.0 30.0 0.0 
66.0 30.0 0.0 67.0 30.0 0.0 
68.0 30.0 0.0 69.0 30.0 0.0 
70.0 30.0 0.0 71.0 30.0 0.0 
72.0 30.0 0.0 73.0 30.0 0.0 
74.0 30.0 0.0 75.0 30.0 0.0 
76.0 30.0 0.0 77.0 30.0 0.0 
78.0 30.0 0.0 79.0 30.0 0.0 
80.0 30.0 0.0 81.0 30.0 0.0 
82.0 30.0 0.0 83.0 30.0 0.0 
84.0 30.0 0.0 85.0 30.0 0.0 
86.0 30.0 0.0 87.0 30.0 0.0 
88.0 30.0 0.0 89.0 30.0 0.0 
90.0 30.0 0.0 91.0 30.0 0.0 
92.0 30.0 0.0 93.0 30.0 0.0 
94.0 30.0 0.0 95.0 30.0 0.0 
96.0 30.0 0.0 97.0 30.0 0.0 
98.0 30.0 0.0 99.0 30.0 0.0 
16.0 1.0 0.0 22.0 1.0 0.0 
28.0 1.0 0.0 34.0 1.0 0.0 
40.0 1.0 0.0 46.0 1.0 0.0 
52.0 1.0 0.0 58.0 1.0 0.0 
64.0 1.0 0.0 70.0 1.0 0.0 
76.0 1.0 0.0 82.0 1.0 0.0 
15.0 29.0 0.0 20.0 29.0 0.0 
25.0 29.0 0.0 30.0 29.0 0.0 
35.0 29.0 0.0 40.0 29.0 0.0 
45.0 29.0 0.0 50.0 29.0 0.0 
55.0 29.0 0.0 60.0 29.0 0.0 
65.0 29.0 0.0 70.0 29.0 0.0 
75.0 29.0 0.0 80.0 29.0 0.0 
99.0 13.0 0.0 85.0 29.0 0.0 
1.0 12.0 0.0 1.0 18.0 0.0 
99.0 18.0 0.0 88.0 1.0 0.0 
8.99999999994914 0.999999999973743 0.0 99.0 8.0 0.0 
8.0 29.0 0.0 89.0 29.0 0.0 
99.0 22.0 0.0 0.999995859328856 6.99995963616369 0.0 
1.0 23.0 0.0 93.0 1.0 0.0 
93.0 29.0 0.0 4.99897846844128 0.999401131561401 0.0 
99.0 4.0 0.0 99.0 25.0 0.0 
4.0 29.0 0.0 0.998018130894958 3.99456365118287 0.0 
96.0 29.0 0.0 1.0 27.0 0.0 
2.98755098591844 0.99220568858159 0.0 13.0 1.0 0.0 
97.0 1.0 0.0 99.0 27.0 0.0 
0.999999999429266 9.99999999116626 0.0 1.0 16.0 0.0 
20.0 1.0 0.0 26.0 1.0 0.0 
32.0 1.0 0.0 38.0 1.0 0.0 
44.0 1.0 0.0 50.0 1.0 0.0 
56.0 1.0 0.0 62.0 1.0 0.0 
68.0 1.0 0.0 74.0 1.0 0.0 
80.0 1.0 0.0 86.0 1.0 0.0 
99.0 15.0 0.0 10.0 29.0 0.0 
17.0 29.0 0.0 22.0 29.0 0.0 
27.0 29.0 0.0 32.0 29.0 0.0 
37.0 29.0 0.0 42.0 29.0 0.0 
47.0 29.0 0.0 52.0 29.0 0.0 
57.0 29.0 0.0 62.0 29.0 0.0 
67.0 29.0 0.0 72.0 29.0 0.0 
77.0 29.0 0.0 82.0 29.0 0.0 
0.982043965477184 1.98304218642421 0.0 1.0 29.0 0.0 
99.0 1.0 0.0 99.0 29.0 0.0 
0.983223912217958 0.987621281485569 0.0 0.999949380687591 5.99961944502072 0.0 
0.999999970537249 8.99999955168247 0.0 1.0 14.0 0.0 
1.0 20.0 0.0 1.0 22.0 0.0 
1.0 25.0 0.0 6.99998134409618 0.99999175922936 0.0 
10.9999999999491 0.999999999973743 0.0 15.0 1.0 0.0 
18.0 1.0 0.0 24.0 1.0 0.0 
30.0 1.0 0.0 36.0 1.0 0.0 
42.0 1.0 0.0 48.0 1.0 0.0 
54.0 1.0 0.0 60.0 1.0 0.0 
66.0 1.0 0.0 72.0 1.0 0.0 
78.0 1.0 0.0 84.0 1.0 0.0 
90.0 1.0 0.0 92.0 1.0 0.0 
95.0 1.0 0.0 99.0 2.0 0.0 
99.0 5.0 0.0 99.0 6.0 0.0 
99.0 9.0 0.0 99.0 10.0 0.0 
99.0 11.0 0.0 99.0 16.0 0.0 
99.0 19.0 0.0 99.0 20.0 0.0 
99.0 23.0 0.0 2.0 29.0 0.0 
5.0 29.0 0.0 6.0 29.0 0.0 
11.0 29.0 0.0 12.0 29.0 0.0 
13.0 29.0 0.0 18.0 29.0 0.0 
23.0 29.0 0.0 28.0 29.0 0.0 
33.0 29.0 0.0 38.0 29.0 0.0 
43.0 29.0 0.0 48.0 29.0 0.0 
53.0 29.0 0.0 58.0 29.0 0.0 
63.0 29.0 0.0 68.0 29.0 0.0 
73.0 29.0 0.0 78.0 29.0 0.0 
83.0 29.0 0.0 86.0 29.0 0.0 
87.0 29.0 0.0 90.0 29.0 0.0 
91.0 29.0 0.0 94.0 29.0 0.0 
97.0 29.0 0.0 16.0 2.0 0.0 
22.0 28.0 0.0 27.0 28.0 0.0 
52.0 28.0 0.0 57.0 28.0 0.0 
82.0 28.0 0.0 32.0 28.0 0.0 
37.0 28.0 0.0 62.0 28.0 0.0 
67.0 28.0 0.0 42.0 28.0 0.0 
72.0 28.0 0.0 98.0 15.0 0.0 
12.0 28.0 0.0 98.0 19.0 0.0 
89.0 28.0 0.0 98.0 10.0 0.0 
1.99999999531953 9.999999928767 0.0 93.0 2.0 0.0 
2.0 23.0 0.0 98.0 22.0 0.0 
93.0 28.0 0.0 1.99998433821395 6.9998796865685 0.0 
98.0 5.0 0.0 5.0 28.0 0.0 
85.0 28.0 0.0 96.0 28.0 0.0 
1.98413137230705 0.988341966066793 0.0 0.993390117123437 2.98985247870427 0.0 
0.999537928146093 4.99813727245904 0.0 0.999998442801018 7.99998651096591 0.0 
0.999999999636129 10.9999999944437 0.0 1.0 13.0 0.0 
1.0 15.0 0.0 1.0 17.0 0.0 
1.0 19.0 0.0 1.0 21.0 0.0 
1.0 24.0 0.0 1.0 26.0 0.0 
1.0 28.0 0.0 3.99605406296194 0.997383435909015 0.0 
5.99977465143194 0.999865295129002 0.0 7.9999965299808 0.999998450318377 0.0 
9.99999999988557 0.999999999940923 0.0 11.9999999999936 0.999999999996718 0.0 
14.0 1.0 0.0 17.0 1.0 0.0 
19.0 1.0 0.0 21.0 1.0 0.0 
23.0 1.0 0.0 25.0 1.0 0.0 
27.0 1.0 0.0 29.0 1.0 0.0 
31.0 1.0 0.0 33.0 1.0 0.0 
35.0 1.0 0.0 37.0 1.0 0.0 
39.0 1.0 0.0 41.0 1.0 0.0 
43.0 1.0 0.0 45.0 1.0 0.0 
47.0 1.0 0.0 49.0 1.0 0.0 
51.0 1.0 0.0 53.0 1.0 0.0 
55.0 1.0 0.0 57.0 1.0 0.0 
59.0 1.0 0.0 61.0 1.0 0.0 
63.0 1.0 0.0 65.0 1.0 0.0 
67.0 1.0 0.0 69.0 1.0 0.0 
71.0 1.0 0.0 73.0 1.0 0.0 
75.0 1.0 0.0 77.0 1.0 0.0 
79.0 1.0 0.0 81.0 1.0 0.0 
83.0 1.0 0.0 85.0 1.0 0.0 
87.0 1.0 0.0 89.0 1.0 0.0 
91.0 1.0 0.0 94.0 1.0 0.0 
96.0 1.0 0.0 98.0 1.0 0.0 
99.0 3.0 0.0 99.0 7.0 0.0 
99.0 12.0 0.0 99.0 14.0 0.0 
99.0 17.0 0.0 99.0 21.0 0.0 
99.0 24.0 0.0 99.0 26.0 0.0 
99.0 28.0 0.0 3.0 29.0 0.0 
7.0 29.0 0.0 9.0 29.0 0.0 
14.0 29.0 0.0 16.0 29.0 0.0 
19.0 29.0 0.0 21.0 29.0 0.0 
24.0 29.0 0.0 26.0 29.0 0.0 
29.0 29.0 0.0 31.0 29.0 0.0 
34.0 29.0 0.0 36.0 29.0 0.0 
39.0 29.0 0.0 41.0 29.0 0.0 
44.0 29.0 0.0 46.0 29.0 0.0 
49.0 29.0 0.0 51.0 29.0 0.0 
54.0 29.0 0.0 56.0 29.0 0.0 
59.0 29.0 0.0 61.0 29.0 0.0 
64.0 29.0 0.0 66.0 29.0 0.0 
69.0 29.0 0.0 71.0 29.0 0.0 
74.0 29.0 0.0 76.0 29.0 0.0 
79.0 29.0 0.0 81.0 29.0 0.0 
84.0 29.0 0.0 88.0 29.0 0.0 
92.0 29.0 0.0 95.0 29.0 0.0 
98.0 29.0 0.0 98.0 8.0 0.0 
10.0 28.0 0.0 86.0 28.0 0.0 
90.0 28.0 0.0 22.0 2.0 0.0 
28.0 2.0 0.0 34.0 2.0 0.0 
40.0 2.0 0.0 46.0 2.0 0.0 
52.0 2.0 0.0 58.0 2.0 0.0 
64.0 2.0 0.0 70.0 2.0 0.0 
76.0 2.0 0.0 82.0 2.0 0.0 
2.0 16.0 0.0 85.0 27.0 0.0 
88.0 2.0 0.0 11.9999999999928 1.99999999999631 0.0 
89.0 27.0 0.0 8.99999961400676 1.99999982348209 0.0 
5.9997075717904 1.99979502371096 0.0 1.99934767917968 4.99734291783241 0.0 
16.0 28.0 0.0 46.0 28.0 0.0 
76.0 28.0 0.0 2.0 27.0 0.0 
3.99556896721827 1.99618513026716 0.0 97.0 2.0 0.0 
2.0 20.0 0.0 94.0 28.0 0.0 
24.0 28.0 0.0 29.0 28.0 0.0 
34.0 28.0 0.0 39.0 28.0 0.0 
54.0 28.0 0.0 59.0 28.0 0.0 
64.0 28.0 0.0 69.0 28.0 0.0 
98.0 12.0 0.0 7.0 28.0 0.0 
98.0 24.0 0.0 97.0 28.0 0.0 
20.0 2.0 0.0 26.0 2.0 0.0 
32.0 2.0 0.0 38.0 2.0 0.0 
44.0 2.0 0.0 50.0 2.0 0.0 
56.0 2.0 0.0 62.0 2.0 0.0 
68.0 2.0 0.0 74.0 2.0 0.0 
80.0 2.0 0.0 86.0 2.0 0.0 
1.99999981323511 8.99999805583899 0.0 2.0 14.0 0.0 
91.0 2.0 0.0 98.0 20.0 0.0 
18.0 28.0 0.0 48.0 28.0 0.0 
78.0 28.0 0.0 83.0 28.0 0.0 
87.0 28.0 0.0 91.0 28.0 0.0 
98.0 7.0 0.0 14.0 28.0 0.0 
20.0 28.0 0.0 25.0 28.0 0.0 
30.0 28.0 0.0 35.0 28.0 0.0 
40.0 28.0 0.0 44.0 28.0 0.0 
50.0 28.0 0.0 55.0 28.0 0.0 
60.0 28.0 0.0 65.0 28.0 0.0 
70.0 28.0 0.0 74.0 28.0 0.0 
80.0 28.0 0.0 98.0 13.0 0.0 
1.99999999996321 11.9999999994391 0.0 2.0 18.0 0.0 
98.0 17.0 0.0 98.0 18.0 0.0 
8.0 28.0 0.0 98.0 3.0 0.0 
98.0 4.0 0.0 98.0 25.0 0.0 
3.0 28.0 0.0 4.0 28.0 0.0 
1.9971839117747 3.993137435461 0.0 1.98608618048036 1.98526975763388 0.0 
14.0 2.0 0.0 98.0 26.0 0.0 
98.0 27.0 0.0 1.99983949066551 5.99923056007149 0.0 
2.0 22.0 0.0 2.0 25.0 0.0 
7.99999502590895 1.99999772908988 0.0 10.9999999997687 1.99999999988056 0.0 
15.0 2.0 0.0 18.0 2.0 0.0 
[...]
CELL_DATA 3000

SCALARS element_states float
LOOKUP_TABLE default
1 1 1 1 1 1 1 1 1 1 1 1 0 0 0 0 0 1 1 1 1 0 0 0 0 0 0 0 0 0 
1 0 1 1 0 0 0 1 0 1 0 0 0 1 1 0 0 0 0 1 1 0 0 0 0 0 1 1 1 1 
1 1 1 0 0 0 0 0 0 0 0 0 0 0 0 0 0 0 0 0 1 1 1 1 1 1 1 1 1 1 
1 1 1 1 1 1 1 1 1 1 1 1 1 1 1 1 1 1 1 1 1 1 1 1 1 1 1 1 1 1 
1 1 1 1 1 1 1 1 1 1 1 1 1 1 1 1 1 1 1 1 1 1 1 1 1 1 1 1 1 1 
1 1 1 1 1 1 1 1 1 1 1 1 1 1 1 1 1 1 1 1 1 1 1 1 1 1 1 1 1 1 
1 1 1 1 1 1 1 1 0 0 0 0 0 0 0 0 0 0 0 0 0 0 0 0 0 0 0 0 0 0 
0 0 0 1 1 1 1 1 1 1 1 1 1 1 1 1 1 1 1 1 1 1 1 1 1 1 1 1 1 1 
1 1 1 1 1 1 1 1 1 1 1 1 1 1 1 1 1 1 1 1 1 1 1 1 1 1 1 1 1 1 
1 1 1 1 1 1 1 1 1 0 0 0 0 0 0 0 0 0 0 0 0 0 0 0 0 0 0 0 0 0 
0 0 0 0 0 0 0 0 0 0 0 1 1 1 1 1 1 1 1 1 1 1 0 0 0 0 0 0 1 1 
1 1 1 0 1 1 1 1 1 1 0 1 1 1 1 0 0 1 1 1 0 0 1 1 1 1 1 1 1 1 
1 1 0 0 0 0 0 0 0 0 0 0 0 1 1 1 1 1 1 1 1 1 1 1 1 1 1 1 1 1 
1 1 1 1 1 1 1 0 0 0 0 0 0 0 0 0 0 1 1 1 1 1 0 1 1 1 1 1 0 0 
1 1 0 0 1 0 0 0 1 0 0 0 0 0 0 0 0 0 0 0 0 0 0 0 1 1 1 1 1 1 
1 1 1 1 1 1 1 1 1 1 1 1 1 1 1 1 1 1 1 1 1 1 1 1 1 1 1 1 1 1 
1 1 1 1 1 1 1 1 1 1 1 1 1 1 1 1 1 1 1 1 1 1 1 1 1 1 1 1 1 1 
1 1 1 1 1 1 1 1 1 1 1 1 1 1 1 1 1 1 1 0 0 0 0 0 0 1 1 1 1 1 
1 1 1 1 1 1 1 1 1 1 0 0 0 0 0 0 0 0 1 1 0 0 0 0 0 0 0 0 0 0 
1 1 1 0 0 1 1 0 0 0 0 0 1 1 0 0 0 0 0 0 0 0 1 1 1 1 1 1 1 1 
1 0 0 0 0 0 0 0 1 1 0 0 1 1 1 1 0 1 1 0 0 1 1 1 1 0 0 0 0 1 
0 0 0 0 0 0 0 1 1 1 1 1 1 1 1 1 1 1 1 1 1 1 1 1 1 0 1 1 1 1 
1 1 1 1 1 1 0 0 1 1 1 1 1 1 1 1 1 1 0 0 0 0 0 0 0 1 0 1 0 0 
0 0 1 0 1 1 1 1 1 0 1 1 0 1 1 0 0 1 1 1 1 1 1 1 1 1 0 0 1 1 
1 1 1 0 0 0 0 0 0 0 0 1 1 1 1 1 1 1 1 1 1 1 1 1 1 1 1 1 1 1 
1 1 1 1 1 1 1 1 1 1 1 1 1 1 1 1 1 1 1 1 1 1 1 1 1 1 1 1 1 1 
1 1 1 1 1 1 1 1 1 1 0 1 0 0 0 0 1 1 1 1 0 1 1 1 1 1 1 1 0 0 
0 1 0 0 0 1 0 0 0 0 0 1 1 1 1 1 1 1 1 1 1 1 1 1 1 1 0 0 0 0 
1 1 1 0 1 1 1 1 1 1 1 1 1 1 1 1 0 0 0 0 0 0 0 0 0 1 1 1 1 1 
1 1 1 1 0 0 0 0 1 1 1 1 0 0 0 1 1 1 1 1 0 0 0 0 1 1 1 1 1 1 
0 0 0 0 1 1 1 0 0 0 0 1 0 1 0 1 1 1 1 1 0 0 0 1 1 1 0 0 0 0 
1 1 0 1 1 0 0 1 1 1 1 1 1 1 1 0 1 1 1 1 1 0 0 0 0 0 0 0 0 0 
0 0 0 0 0 0 0 1 1 1 1 1 1 1 1 1 1 1 1 1 0 0 1 1 1 1 1 1 0 1 
0 1 1 1 1 0 0 0 1 1 0 0 1 1 1 0 0 0 1 0 0 0 0 1 0 0 0 0 0 0 
1 1 1 1 0 0 0 0 1 1 1 1 0 0 1 1 0 1 1 1 1 1 1 1 0 1 1 1 1 1 
1 1 1 1 1 1 1 1 1 0 0 0 0 1 1 0 0 0 0 1 1 1 1 1 1 1 1 1 1 1 
1 1 1 1 1 1 0 0 1 1 1 1 1 1 1 1 1 1 1 1 1 1 1 1 1 1 1 0 0 0 
0 0 0 0 0 1 1 1 0 0 0 0 1 0 1 0 0 0 0 1 1 1 0 1 1 0 0 0 0 0 
1 1 0 0 1 0 0 1 1 0 0 1 0 0 0 0 0 0 1 0 1 1 1 0 1 1 1 1 0 0 
0 1 1 1 1 1 1 1 1 1 0 1 1 1 0 0 0 0 1 1 1 0 1 0 0 0 0 0 1 0 
1 1 1 1 0 1 1 1 1 1 0 0 1 1 0 0 0 0 0 0 0 0 0 0 0 0 1 1 1 0 
0 1 1 1 0 1 0 1 1 0 0 0 0 0 0 1 0 0 0 0 1 0 0 1 0 1 1 1 1 1 
0 0 1 1 1 0 0 1 0 0 1 0 0 1 0 1 0 1 0 0 0 1 0 0 1 1 0 0 0 0 
0 0 1 1 1 1 1 1 0 0 1 1 1 1 1 0 0 0 0 1 1 1 0 0 0 0 1 0 1 1 
0 0 0 0 0 0 1 0 0 0 0 1 0 0 1 1 1 1 1 1 1 1 0 1 1 1 0 0 0 0 
1 0 0 1 1 1 0 0 0 0 0 0 0 1 0 0 0 0 0 0 0 0 1 1 1 1 1 1 0 1 
0 0 1 1 0 0 1 1 0 0 1 1 0 1 0 0 1 0 0 0 0 0 0 0 0 0 1 1 1 0 
0 0 0 1 0 0 1 0 1 1 0 1 1 0 0 1 0 0 0 0 0 0 0 0 0 0 1 1 1 1 
0 0 0 0 1 1 0 0 0 0 0 0 0 0 0 1 0 0 1 1 0 0 0 0 0 0 0 1 0 0 
0 0 1 0 1 1 1 1 0 1 1 0 1 0 0 0 1 0 1 1 0 0 0 0 0 1 0 0 0 0 
1 1 1 1 0 1 0 0 1 1 1 1 1 0 1 0 0 1 1 1 1 0 0 1 1 1 0 0 1 1 
1 1 0 0 0 1 0 1 0 0 0 0 1 1 0 1 1 1 0 0 0 1 0 0 1 1 1 0 0 0 
1 1 1 1 0 0 1 1 1 1 0 0 1 0 1 0 1 0 0 1 0 0 0 1 1 1 0 1 0 0 
0 1 0 0 0 0 0 0 0 1 1 1 1 1 1 1 1 0 1 1 0 0 0 0 0 1 0 0 0 0 
0 0 1 1 0 0 0 0 1 1 0 0 0 0 0 1 0 0 0 1 1 0 0 0 1 1 0 0 0 0 
0 0 0 0 1 1 0 1 1 0 0 1 1 1 0 0 0 0 0 1 1 1 1 1 0 0 1 1 1 0 
0 1 1 0 1 1 0 1 0 0 0 0 0 0 1 0 0 1 0 0 0 1 1 0 0 0 0 1 0 0 
0 0 1 0 1 1 1 1 1 0 0 0 1 1 0 0 0 0 1 0 0 0 0 0 0 1 1 1 0 0 
0 1 0 0 0 1 0 1 1 0 0 1 1 0 0 1 1 0 0 1 1 0 0 0 0 0 0 1 0 1 
0 0 1 0 0 1 1 1 1 1 1 1 0 1 1 1 0 0 1 1 1 0 0 0 0 0 0 0 0 0 
0 0 0 0 0 0 0 0 0 0 0 0 0 1 1 1 0 0 0 0 0 0 1 1 1 1 1 0 1 1 
1 0 0 1 0 0 1 0 0 0 0 1 1 1 1 0 0 1 0 0 0 0 0 0 0 0 0 0 1 1 
0 0 0 0 0 1 1 0 1 0 1 0 0 0 0 0 0 0 0 1 1 0 0 0 1 1 1 0 0 1 
1 0 0 0 0 1 1 0 1 0 0 1 1 0 0 0 0 0 0 0 0 0 0 0 0 0 0 0 0 1 
1 0 0 0 1 1 0 0 0 0 0 0 0 0 0 1 0 0 0 0 1 0 1 0 1 1 1 1 0 0 
0 0 0 0 0 0 0 0 0 0 1 1 0 0 0 0 0 0 0 0 0 0 0 0 1 0 1 0 0 0 
0 0 0 0 1 0 1 0 0 0 1 1 0 0 0 0 0 0 1 1 0 0 1 0 1 0 1 1 0 0 
0 1 0 0 0 1 0 1 1 0 0 1 0 0 0 0 0 1 0 0 0 0 0 0 1 0 0 0 0 0 
0 1 1 0 0 0 0 0 0 0 0 0 0 1 1 1 1 0 0 0 1 0 1 0 1 0 1 1 0 0 
0 0 0 0 0 0 0 0 0 0 0 0 0 1 0 1 0 0 0 0 1 0 0 0 0 0 0 0 0 1 
0 0 0 0 0 0 0 0 0 0 0 1 1 0 1 0 0 1 0 0 1 1 0 1 1 0 0 0 0 0 
0 0 1 1 0 0 0 0 0 0 0 1 1 0 0 0 1 0 0 0 0 0 0 0 0 0 0 0 1 0 
0 0 1 0 1 1 0 0 0 0 0 1 1 1 1 0 0 0 0 1 0 0 0 1 0 0 0 0 1 1 
0 1 0 0 0 0 0 0 0 1 1 0 0 0 1 0 1 0 1 1 1 0 1 0 0 0 0 0 0 0 
1 0 0 0 1 1 1 1 0 0 0 0 0 0 0 0 0 1 0 0 0 0 0 0 0 0 0 0 0 0 
0 0 1 1 0 0 0 1 1 0 1 1 0 0 0 0 0 0 0 0 0 0 0 0 0 0 0 1 0 0 
0 0 0 1 0 1 1 0 0 0 0 0 0 0 0 0 0 0 0 1 1 0 0 0 0 0 0 0 0 0 
0 0 0 0 1 1 1 0 1 1 0 0 0 0 0 1 0 0 0 0 0 0 0 1 0 0 0 0 0 0 
1 1 0 0 0 0 0 0 0 1 0 0 1 0 1 0 0 1 0 0 1 0 0 0 0 0 1 1 1 1 
0 1 0 0 1 0 0 0 0 0 0 1 1 1 0 0 0 0 0 0 0 0 0 1 0 1 0 0 0 1 
0 0 1 1 0 0 0 0 0 0 0 0 0 0 0 0 0 0 0 0 0 0 0 0 0 0 0 0 0 1 
1 0 1 0 0 0 1 0 0 0 1 0 0 0 0 0 0 0 0 0 0 0 0 1 1 1 1 1 0 1 
1 1 1 0 0 1 0 0 0 0 0 0 1 0 0 0 0 0 0 0 0 0 0 0 0 1 0 1 1 0 
0 0 0 0 0 0 0 0 0 1 1 0 0 0 0 0 0 0 0 0 0 1 0 0 0 1 1 0 0 0 
0 0 1 1 0 0 0 0 0 0 0 0 0 1 0 0 0 0 0 1 1 0 0 0 1 0 0 0 0 0 
1 1 1 0 0 0 0 0 1 0 0 1 0 1 0 0 0 0 0 0 0 1 1 1 0 0 0 1 0 0 
1 0 0 0 0 1 0 0 0 0 0 0 1 1 1 1 0 0 0 0 0 1 0 1 0 0 0 0 0 0 
0 0 0 0 0 0 0 0 0 0 0 0 0 0 0 0 0 1 1 0 0 0 1 1 0 1 1 0 0 0 
0 1 1 1 0 0 0 1 1 1 0 0 0 0 0 0 1 1 1 1 0 0 0 0 0 0 0 0 0 0 
0 0 0 1 1 1 0 0 0 0 0 0 0 1 0 0 0 0 0 0 0 0 0 0 0 0 0 0 0 0 
0 0 0 0 0 0 0 0 0 0 0 0 0 0 0 0 0 1 0 0 0 0 0 0 0 1 0 0 1 0 
0 0 1 0 0 1 0 0 0 0 0 0 0 0 1 1 0 1 0 0 0 1 1 0 0 0 0 0 0 0 
0 0 0 0 0 0 0 0 0 0 0 0 1 0 0 0 0 0 0 0 0 0 0 0 0 0 0 1 0 0 
0 0 0 0 0 0 0 1 1 1 0 0 0 0 0 0 0 0 0 0 0 1 0 0 0 0 0 0 1 0 
0 0 0 0 0 0 0 0 0 0 0 0 1 0 0 0 0 0 0 0 0 0 0 0 0 0 0 1 1 0 
0 1 0 0 0 0 0 0 1 0 0 1 1 0 0 0 0 0 1 1 0 0 0 1 0 0 0 0 0 0 
0 0 0 0 0 0 0 0 0 1 1 0 0 0 0 0 1 1 0 0 0 0 1 1 0 0 0 1 0 0 
0 0 0 1 0 1 1 0 0 0 0 0 0 0 1 1 0 0 0 0 0 0 1 0 0 0 0 0 1 1 
1 1 0 1 1 1 0 0 1 1 0 0 0 1 0 0 0 0 0 0 0 0 0 0 1 0 0 0 1 1 
0 1 0 0 0 0 0 0 0 0 0 0 1 0 0 1 1 1 0 0 0 0 0 0 1 1 0 1 1 1 


SCALARS sensitivity_number float
LOOKUP_TABLE default
0.15139545549938666 0.13920445236915738 0.12584941217616036 0.1400368759715675 0.12599239584995928 0.07336289919480783 
0.04385304208032799 0.09907567970802036 0.10406115541965 0.08869887841565216 0.09375746102494581 0.0993414878968941 
0.025985103097463616 6.673595629610533e-09 4.607902622022982e-09 1.0174645066313878e-08 6.560650737752196e-09 0.07365071514988339 
0.04487678176729179 0.04424522377491336 0.04372795168831047 0.020825147027959703 0.020250987040381294 1.5480041523261902e-07 
1.936013620220169e-07 1.657096756911193e-07 1.6348785210819663e-07 1.2438988628178674e-07 0.027109603900418815 0.011200783804560261 
0.06126093286718983 0.05127895326208138 0.049649492674282134 0.08725154063379374 0.03284190645187397 0.04503627500150739 
0.005869650485590423 0.09481958983011293 1.2075469466555108e-07 0.07623966643934495 1.6993372679659677e-07 1.720139580418206e-07 
1.4959792134355e-07 0.06655453405013577 0.05872819674017463 1.1829855580144736e-07 1.5780016097260685e-07 1.3686459525523815e-07 
1.8355802322928108e-07 0.06855690637531729 0.09350725853956425 1.6961819126810237e-07 0.04799952843072496 1.851758288525969e-07 
1.6599643164658731e-07 0.010250678847185226 0.15601534735691291 0.15066803994912012 0.12362202870955127 0.13728710541577688 
0.1110666722468444 0.1084031026841182 0.0676245215174189 0.056495355668605474 0.00820080816270309 1.600666497306922e-07 
1.1631896708879961e-07 1.205855030498785e-07 1.1810418810109828e-07 1.2000385990549846e-07 1.241173142187751e-07 1.2198750164335126e-07 
1.3178254869059238e-07 1.27016074375352e-07 1.3906222178133311e-07 1.504564579027112e-07 1.638481492132607e-07 1.8802709766319369e-07 
2.0468596359213726e-07 0.01375300025567794 0.04449307174669009 0.12623894084416498 0.08339492797176619 0.18243075266101882 
0.2818303304244672 0.2673436948276719 0.15900425218164208 0.16180694897890566 0.16049777207383978 0.16283359645210443 
0.1635767224018544 0.16471655045140213 0.16414847594154452 0.1654301366075278 0.16636002183841317 0.1683751688009521 
0.1674312630116914 0.1688312422853254 0.16834981157118314 0.16658365017945856 0.16332279278959658 0.15865636959632495 
0.1472858167230969 0.15307654644475738 0.13745739352550201 0.14194607249496427 0.1338722204692477 0.1309923772768371 
0.12625214733410206 0.12853197422203633 0.12171751933660757 0.12400424966704265 0.11936771325577447 0.11696110090874376 
0.11221135333326267 0.11453882652070223 0.10896742325617786 0.11020500564223565 0.1090839948587963 0.1111271248290801 
0.12188418294176992 0.11542313595977285 0.1405994288873556 0.1303278412730548 0.15245994728866064 0.1651604677502107 
0.1856113405678598 0.17702034868737276 0.18580109534914557 0.18882359056281967 0.175577507599772 0.15887413573936465 
0.12090061463617946 0.1388794821708539 0.09059007628902217 0.10463548832500198 0.07896604316352898 0.07068902771175234 
0.05573303756256374 0.06306049903246064 0.05194184050551085 0.05149686402221541 0.05605336776709677 0.05972315698569162 
0.06167873659604366 0.061885455470776965 0.06381136236965221 0.06147716397000575 0.06536140279527523 0.0661938606487886 
0.06694247944634811 0.06653361113532623 0.06830066074837678 0.06738192237848648 0.06964246868922849 0.07184423298740207 
0.08434284430221509 0.07632052935054527 0.12586529362575236 0.09987678125176087 0.13084810702543317 0.13020697436932543 
0.11888317904964289 0.12645400555737177 0.0935819266427746 0.10103484403290525 0.0925413385578284 0.09315611560228762 
0.10616047765904003 0.0979316240172535 0.10525457554005123 0.10637514650165186 0.10398054218239178 0.10415534151807526 
0.10599747618825259 0.10808301914469515 0.11053571697551075 0.11215743155620317 0.11336448514159639 0.11023391337235465 
0.11210351138704139 0.11635317007874618 0.2358371578150743 0.1967339693378581 0.23143166673105434 0.1030217721933187 
0.15068503821438245 0.060179129585660206 0.019926571152462425 1.1488404258675014e-07 1.5775157193381542e-07 8.28111963249442e-08 
6.692285008278291e-08 5.505422135572746e-08 3.952333141821641e-08 4.638209640877251e-08 3.393908318634344e-08 2.9007199941010022e-08 
2.4489064284488535e-08 1.652532582166853e-08 2.0325242323652248e-08 1.3093508645101323e-08 1.0035863322874018e-08 5.82185485202933e-09 
7.52426665580873e-09 4.469356993952446e-09 3.0437457902265933e-09 3.7016930376432327e-09 2.6377674870954395e-09 2.4339356659785902e-09 
2.126457856667796e-09 1.591451930459192e-09 1.4461954373522317e-09 0.2974858366746514 0.21202728498658543 0.2503645590882496 
0.19689966330629824 0.18301581901042474 0.16354786577350522 0.17240130008094756 0.1560243052453123 0.1491948533959074 
0.14276408454589712 0.13661173630578197 0.1307148297385969 0.11966719029652192 0.12505656726711173 0.11467901918405675 
0.11033968713977114 0.10694731768241195 0.10401917280896633 0.10477589989791225 0.10459195942207573 0.10616842222456785 
0.10797050935710092 0.10958609444043133 0.10924237643983346 0.10897174868402629 0.10790249115158491 0.10696106272395513 
0.10694681241133866 0.10668706087526247 0.10753668719593001 0.10821121700072456 0.10890323118949344 0.11026839595464671 
0.10958924674174535 0.11094332728639718 0.111616501540702 0.11228912291753429 0.11363425462840439 0.11296166687417028 
0.11430689029155866 0.11497955480790027 0.11565225029457316 0.11699782783766174 0.11632499422068375 0.11767074835309678 
0.11834355635105451 0.11901540348529123 0.1203454031828765 0.11968419525142793 0.12099445184633235 0.12163055385262399 
0.1223198327749318 0.12459270276471619 0.12319836796814797 0.1268323296527995 0.12996626135332118 0.13317310323232676 
0.1347516383989548 0.13517059093093164 0.13076756301024756 0.12266483249149486 0.10998972335925791 0.079984784226665 
0.09564922825723807 0.06268545333823028 0.042073797476511104 0.01380088618048414 1.399735991970842e-07 1.5824172394228857e-07 
1.1937332530662236e-07 1.0496296682060758e-07 9.694724575552078e-08 8.704304144061052e-08 9.101357277380178e-08 8.349508060462103e-08 
8.139867882017901e-08 8.019820992351784e-08 8.008475281291734e-08 8.018623626999972e-08 7.973857877432443e-08 7.791094382430003e-08 
7.424323696624756e-08 6.151590290364751e-08 6.863893558443561e-08 5.338869055074607e-08 4.49332110861923e-08 2.8905780660037957e-08 
3.660996499494416e-08 2.2065936325399383e-08 1.6108889374402856e-08 7.576191322737542e-09 1.111063785260054e-08 3.452387184238441e-09 
4.990201886923755e-09 2.693750957072355e-09 2.3496848828055223e-09 1.5885434191652256e-09 2.092238616256503e-09 0.11261067167434557 
0.11736299641737119 0.10670947391895383 0.10520465271897374 0.10780902146843786 0.11025809810297037 0.11320002650648156 
0.11270947077400045 0.11746684515779793 0.1251241157920301 0.08634254460964613 0.009053576963094464 8.555581912259923e-08 
9.005482918501138e-08 4.3709911539170134e-08 1.6427044109907322e-08 2.0048170029587225e-08 0.15654852069095604 0.15558339418126096 
0.1548948891340238 0.06321294532346351 0.10003947676794261 3.885823040227853e-09 0.18708811094707686 0.20419574168319496 
0.12451184084996117 0.11181767054611 0.15948125733224766 0.16005675060716457 2.3319440348297563e-09 0.10831677275580283 
0.10480691225885023 0.1136910981264582 0.11418305301157107 8.260632499951091e-08 8.115579703982252e-08 0.1380221347996457 
0.08166119975675395 0.1032170329979668 1.347702849860005e-07 1.9922722301248837e-07 0.15600428737613997 0.15627285603965432 
0.15853664408407125 0.15839304836315093 0.15983664150176885 0.07011339008578467 0.07323631526237488 0.07167996772038006 
0.18630192532574927 0.12220950657108524 0.04405666939567408 0.00973250455315538 7.034482213251093e-08 8.516954701469733e-08 
5.9062820200451697e-08 5.0413151846168955e-08 2.8376759223964252e-08 2.402735269842162e-08 1.315497976938423e-08 6.396384459646534e-09 
5.042677705239181e-09 0.24406190681182552 0.22684265978476162 0.17436043230562556 0.16435047162153946 0.132655647563211 
0.13818401137164263 0.12739011199064804 0.12231708714048103 0.10463323256756961 0.10617576864566373 0.10460905637715867 
0.10467952980860067 0.10682810853944343 0.10732004117978315 0.10927763734610227 0.10976783496134312 0.11172888410233467 
0.11221914385134026 0.11652373814551403 0.11692499305779977 0.1230824714079532 0.12490236069112998 0.10998264039017755 
0.09895228098219642 0.048688962007708086 0.025971702929173578 9.96965719962454e-08 9.780337386986918e-08 7.444106790975718e-08 
5.5433161333120614e-08 4.757482687265872e-08 2.527020712605063e-08 1.9150625672265017e-08 2.350516762320991e-09 0.1554902786838864 
0.10271907324751293 0.1052020483793074 0.11610023177269624 0.12056655089686956 7.795163006071551e-08 0.10632334502404102 
0.10878763600900648 0.11832660110137638 0.05179440188711791 0.11123863641515698 1.0656994827237361e-07 3.3086741838731254e-08 
0.12034105721916376 0.12419394735500269 3.217721261752317e-08 1.2178884301246313e-07 0.07870106982961736 0.01774018406971269 
8.041424003713391e-09 9.68150879600383e-09 0.0423373516712198 6.280336061842248e-08 3.268902786373527e-09 3.968367944434999e-09 
0.014192694739138926 1.1742784019322752e-07 1.2032110321707378e-07 1.1890076664641543e-07 1.233999401849921e-07 1.2177365861029702e-07 
1.2593376590665937e-07 1.3044968911608175e-07 1.499521684967142e-07 1.3808053334897795e-07 1.6520443563815903e-07 1.882581664937073e-07 
0.05008058133529298 0.1357062206892673 0.09408723422267379 0.18811518674169375 0.15387688000736144 0.15654420045132308 
0.15695499954867473 0.1576214056715056 0.15112320371581228 0.14020358338036817 0.14576438049386034 0.13122667392091775 
0.13521258515276216 0.12823385947420612 0.12592764751320204 0.12211359737145647 0.12396560855844838 0.11836559930689086 
0.12025864599023273 0.11642675018469356 0.11443895754971442 0.11035142019349835 0.11240382014980899 0.10688382708135932 
0.10840367587453885 0.10638900641458954 0.10748869857037881 0.11523623286239508 0.11049416195799204 0.128344471181281 
0.12128825849433707 0.13628224548625342 0.14490599307656413 0.15945410699664156 0.15326113132540356 0.16020672973650954 
0.1625710652285993 0.15208464382548237 0.13929407364245922 0.1131090017757465 0.12604400748898417 0.0903604600886758 
0.10136556804144825 0.0819539352548884 0.07534726515487697 0.05891070073820094 0.06758137784804774 0.051698658154430685 
0.05257657019096554 0.05560026499469039 0.0601765188576672 0.06517362959286375 0.06258984239509137 0.07130416676616709 
0.07108905906268079 0.07138152872831724 0.07077462720469259 0.0694200400767148 0.07012599750022853 0.06840176734212866 
0.06872025734394943 0.06854214538142149 0.06995687939675284 0.08151185823395744 0.0736831784702586 0.07976020224289794 
0.09166189603183994 0.08434115005139971 0.08360252745321202 0.0766808447695067 0.08150112100110062 0.08130663044080765 
0.08725264756513781 0.0803029287232785 0.07980825991820298 0.07007348340875927 0.08001734561461521 0.06911006232463146 
0.07008278288439829 0.06823454155397837 0.06872245755302173 0.08644932842949528 0.09548639736968532 0.09189872247690652 
0.11506687659173236 1.0730890965985553e-07 3.8133380565581855e-08 1.029123694291775e-08 2.9542300219907588e-09 1.693091434796988e-09 
1.973916108939636e-09 0.14395793895720957 0.14997924096727472 0.10235731289974884 0.1011827921228625 0.1013591933218301 
0.10616275119200652 0.10578595959313156 0.10829803281215047 0.11074836950776222 0.1146756636972939 0.11516633695932854 
0.11564590005227701 0.11857660418126355 0.12305906632355247 0.07357526118955347 1.3166249911887863e-07 8.030190021250076e-08 
7.99815259508085e-08 7.967635368528331e-08 6.929224669324358e-08 3.9703088246603356e-08 1.3884429599209167e-08 1.9548808414626784e-09 
0.1284232972793711 0.1328460396192778 6.021601388909726e-08 3.197574147824836e-08 1.2291950402605054e-07 6.602926844011358e-08 
7.280712638670981e-08 0.037539500127405374 0.035661178030453586 3.895614568523112e-08 4.574399475801529e-08 3.829095068874843e-08 
0.14014676368930293 0.18980429635019216 0.09291301281783824 1.6996180857501908e-07 5.9053820106285115e-08 0.14165065871853055 
0.1471304015350864 1.924675592907146e-09 2.5309527338228257e-09 0.0400813397121185 1.1565689007689271e-07 1.9656743534681226e-08 
0.10039930908493261 0.10412533614219688 8.338638160783727e-08 7.111258146210144e-08 7.563658542313476e-08 5.3513845333011254e-08 
4.6263420832233307e-08 2.549664825267392e-08 0.008846113102361953 0.040422983768234125 0.1165867715555208 0.10058203390738317 
0.10181896979050377 0.10270057320269081 0.10324214159639833 0.10368130812478031 0.1034322576485627 0.10441381645980051 
0.09737732384622907 0.055713226945599506 1.0620366512473187e-07 5.236413594411582e-08 1.270975781336507e-07 1.3566695578590162e-07 
2.3352132462285243e-08 2.734307294287566e-08 0.08802169304326728 0.0955671322643244 3.475278674567346e-09 5.172697343783834e-09 
0.16598945830066772 0.17993148078987317 0.1129233623929921 0.1423686228349976 2.4496413940412666e-09 0.08027304693667466 
0.09969972527110622 0.005789188717036202 1.9426158070007957e-07 0.1395599460362029 0.13984435505625611 0.14007721447931218 
0.14167681130891768 0.033875737785001914 0.03454683302976729 0.032517597227948065 0.03329416525398349 0.056330680263281835 
7.825410474154528e-08 8.860182150845282e-08 6.734786676742868e-08 3.633655095858415e-08 3.1659924513933074e-08 1.0139886973981977e-08 
7.467615888378176e-09 0.15495250156742524 0.09687927658315042 0.09916539361056155 0.10033016465024105 0.10114800364423193 
0.10250486787492782 0.10260125541492798 0.10302240444015648 0.10313223437186965 0.10357159759343884 0.10455876248481813 
0.1042409428852694 0.1027715388028514 0.10378514972061584 0.1060251470858505 0.10273737914844841 0.07254848950009488 
0.05818409663818002 0.006571324667048183 0.13952398472916475 0.13573502623660258 0.0949088825332513 0.09438762724942995 