# vtk DataFile Version 3.0
Results from optimization
ASCII
DATASET UNSTRUCTURED_GRID

POINTS 3131 float
0.0 0.0 0.0 0.0 30.0 0.0 
100.0 0.0 0.0 100.0 30.0 0.0 
0.0 1.0 0.0 0.0 2.0 0.0 
0.0 3.0 0.0 0.0 4.0 0.0 
0.0 5.0 0.0 0.0 6.0 0.0 
0.0 7.0 0.0 0.0 8.0 0.0 
0.0 9.0 0.0 0.0 10.0 0.0 
0.0 11.0 0.0 0.0 12.0 0.0 
0.0 13.0 0.0 0.0 14.0 0.0 
0.0 15.0 0.0 0.0 16.0 0.0 
0.0 17.0 0.0 0.0 18.0 0.0 
0.0 19.0 0.0 0.0 20.0 0.0 
0.0 21.0 0.0 0.0 22.0 0.0 
0.0 23.0 0.0 0.0 24.0 0.0 
0.0 25.0 0.0 0.0 26.0 0.0 
0.0 27.0 0.0 0.0 28.0 0.0 
0.0 29.0 0.0 1.0 0.0 0.0 
2.0 0.0 0.0 3.0 0.0 0.0 
4.0 0.0 0.0 5.0 0.0 0.0 
6.0 0.0 0.0 7.0 0.0 0.0 
8.0 0.0 0.0 9.0 0.0 0.0 
10.0 0.0 0.0 11.0 0.0 0.0 
12.0 0.0 0.0 13.0 0.0 0.0 
14.0 0.0 0.0 15.0 0.0 0.0 
16.0 0.0 0.0 17.0 0.0 0.0 
18.0 0.0 0.0 19.0 0.0 0.0 
20.0 0.0 0.0 21.0 0.0 0.0 
22.0 0.0 0.0 23.0 0.0 0.0 
24.0 0.0 0.0 25.0 0.0 0.0 
26.0 0.0 0.0 27.0 0.0 0.0 
28.0 0.0 0.0 29.0 0.0 0.0 
30.0 0.0 0.0 31.0 0.0 0.0 
32.0 0.0 0.0 33.0 0.0 0.0 
34.0 0.0 0.0 35.0 0.0 0.0 
36.0 0.0 0.0 37.0 0.0 0.0 
38.0 0.0 0.0 39.0 0.0 0.0 
40.0 0.0 0.0 41.0 0.0 0.0 
42.0 0.0 0.0 43.0 0.0 0.0 
44.0 0.0 0.0 45.0 0.0 0.0 
46.0 0.0 0.0 47.0 0.0 0.0 
48.0 0.0 0.0 49.0 0.0 0.0 
50.0 0.0 0.0 51.0 0.0 0.0 
52.0 0.0 0.0 53.0 0.0 0.0 
54.0 0.0 0.0 55.0 0.0 0.0 
56.0 0.0 0.0 57.0 0.0 0.0 
58.0 0.0 0.0 59.0 0.0 0.0 
60.0 0.0 0.0 61.0 0.0 0.0 
62.0 0.0 0.0 63.0 0.0 0.0 
64.0 0.0 0.0 65.0 0.0 0.0 
66.0 0.0 0.0 67.0 0.0 0.0 
68.0 0.0 0.0 69.0 0.0 0.0 
70.0 0.0 0.0 71.0 0.0 0.0 
72.0 0.0 0.0 73.0 0.0 0.0 
74.0 0.0 0.0 75.0 0.0 0.0 
76.0 0.0 0.0 77.0 0.0 0.0 
78.0 0.0 0.0 79.0 0.0 0.0 
80.0 0.0 0.0 81.0 0.0 0.0 
82.0 0.0 0.0 83.0 0.0 0.0 
84.0 0.0 0.0 85.0 0.0 0.0 
86.0 0.0 0.0 87.0 0.0 0.0 
88.0 0.0 0.0 89.0 0.0 0.0 
90.0 0.0 0.0 91.0 0.0 0.0 
92.0 0.0 0.0 93.0 0.0 0.0 
94.0 0.0 0.0 95.0 0.0 0.0 
96.0 0.0 0.0 97.0 0.0 0.0 
98.0 0.0 0.0 99.0 0.0 0.0 
100.0 1.0 0.0 100.0 2.0 0.0 
100.0 3.0 0.0 100.0 4.0 0.0 
100.0 5.0 0.0 100.0 6.0 0.0 
100.0 7.0 0.0 100.0 8.0 0.0 
100.0 9.0 0.0 100.0 10.0 0.0 
100.0 11.0 0.0 100.0 12.0 0.0 
100.0 13.0 0.0 100.0 14.0 0.0 
100.0 15.0 0.0 100.0 16.0 0.0 
100.0 17.0 0.0 100.0 18.0 0.0 
100.0 19.0 0.0 100.0 20.0 0.0 
100.0 21.0 0.0 100.0 22.0 0.0 
100.0 23.0 0.0 100.0 24.0 0.0 
100.0 25.0 0.0 100.0 26.0 0.0 
100.0 27.0 0.0 100.0 28.0 0.0 
100.0 29.0 0.0 1.0 30.0 0.0 
2.0 30.0 0.0 3.0 30.0 0.0 
4.0 30.0 0.0 5.0 30.0 0.0 
6.0 30.0 0.0 7.0 30.0 0.0 
8.0 30.0 0.0 9.0 30.0 0.0 
10.0 30.0 0.0 11.0 30.0 0.0 
12.0 30.0 0.0 13.0 30.0 0.0 
14.0 30.0 0.0 15.0 30.0 0.0 
16.0 30.0 0.0 17.0 30.0 0.0 
18.0 30.0 0.0 19.0 30.0 0.0 
20.0 30.0 0.0 21.0 30.0 0.0 
22.0 30.0 0.0 23.0 30.0 0.0 
24.0 30.0 0.0 25.0 30.0 0.0 
26.0 30.0 0.0 27.0 30.0 0.0 
28.0 30.0 0.0 29.0 30.0 0.0 
30.0 30.0 0.0 31.0 30.0 0.0 
32.0 30.0 0.0 33.0 30.0 0.0 
34.0 30.0 0.0 35.0 30.0 0.0 
36.0 30.0 0.0 37.0 30.0 0.0 
38.0 30.0 0.0 39.0 30.0 0.0 
40.0 30.0 0.0 41.0 30.0 0.0 
42.0 30.0 0.0 43.0 30.0 0.0 
44.0 30.0 0.0 45.0 30.0 0.0 
46.0 30.0 0.0 47.0 30.0 0.0 
48.0 30.0 0.0 49.0 30.0 0.0 
50.0 30.0 0.0 51.0 30.0 0.0 
52.0 30.0 0.0 53.0 30.0 0.0 
54.0 30.0 0.0 55.0 30.0 0.0 
56.0 30.0 0.0 57.0 30.0 0.0 
58.0 30.0 0.0 59.0 30.0 0.0 
60.0 30.0 0.0 61.0 30.0 0.0 
62.0 30.0 0.0 63.0 30.0 0.0 
64.0 30.0 0.0 65.0 30.0 0.0 
66.0 30.0 0.0 67.0 30.0 0.0 
68.0 30.0 0.0 69.0 30.0 0.0 
70.0 30.0 0.0 71.0 30.0 0.0 
72.0 30.0 0.0 73.0 30.0 0.0 
74.0 30.0 0.0 75.0 30.0 0.0 
76.0 30.0 0.0 77.0 30.0 0.0 
78.0 30.0 0.0 79.0 30.0 0.0 
80.0 30.0 0.0 81.0 30.0 0.0 
82.0 30.0 0.0 83.0 30.0 0.0 
84.0 30.0 0.0 85.0 30.0 0.0 
86.0 30.0 0.0 87.0 30.0 0.0 
88.0 30.0 0.0 89.0 30.0 0.0 
90.0 30.0 0.0 91.0 30.0 0.0 
92.0 30.0 0.0 93.0 30.0 0.0 
94.0 30.0 0.0 95.0 30.0 0.0 
96.0 30.0 0.0 97.0 30.0 0.0 
98.0 30.0 0.0 99.0 30.0 0.0 
16.0 1.0 0.0 22.0 1.0 0.0 
28.0 1.0 0.0 34.0 1.0 0.0 
40.0 1.0 0.0 46.0 1.0 0.0 
52.0 1.0 0.0 58.0 1.0 0.0 
64.0 1.0 0.0 70.0 1.0 0.0 
76.0 1.0 0.0 82.0 1.0 0.0 
15.0 29.0 0.0 20.0 29.0 0.0 
25.0 29.0 0.0 30.0 29.0 0.0 
35.0 29.0 0.0 40.0 29.0 0.0 
45.0 29.0 0.0 50.0 29.0 0.0 
55.0 29.0 0.0 60.0 29.0 0.0 
65.0 29.0 0.0 70.0 29.0 0.0 
75.0 29.0 0.0 80.0 29.0 0.0 
99.0 13.0 0.0 85.0 29.0 0.0 
1.0 12.0 0.0 1.0 18.0 0.0 
99.0 18.0 0.0 88.0 1.0 0.0 
8.99999999994914 0.999999999973743 0.0 99.0 8.0 0.0 
8.0 29.0 0.0 89.0 29.0 0.0 
99.0 22.0 0.0 0.999995859328856 6.99995963616369 0.0 
1.0 23.0 0.0 93.0 1.0 0.0 
93.0 29.0 0.0 4.99897846844128 0.999401131561401 0.0 
99.0 4.0 0.0 99.0 25.0 0.0 
4.0 29.0 0.0 0.998018130894958 3.99456365118287 0.0 
96.0 29.0 0.0 1.0 27.0 0.0 
2.98755098591844 0.99220568858159 0.0 13.0 1.0 0.0 
97.0 1.0 0.0 99.0 27.0 0.0 
0.999999999429266 9.99999999116626 0.0 1.0 16.0 0.0 
20.0 1.0 0.0 26.0 1.0 0.0 
32.0 1.0 0.0 38.0 1.0 0.0 
44.0 1.0 0.0 50.0 1.0 0.0 
56.0 1.0 0.0 62.0 1.0 0.0 
68.0 1.0 0.0 74.0 1.0 0.0 
80.0 1.0 0.0 86.0 1.0 0.0 
99.0 15.0 0.0 10.0 29.0 0.0 
17.0 29.0 0.0 22.0 29.0 0.0 
27.0 29.0 0.0 32.0 29.0 0.0 
37.0 29.0 0.0 42.0 29.0 0.0 
47.0 29.0 0.0 52.0 29.0 0.0 
57.0 29.0 0.0 62.0 29.0 0.0 
67.0 29.0 0.0 72.0 29.0 0.0 
77.0 29.0 0.0 82.0 29.0 0.0 
0.982043965477184 1.98304218642421 0.0 1.0 29.0 0.0 
99.0 1.0 0.0 99.0 29.0 0.0 
0.983223912217958 0.987621281485569 0.0 0.999949380687591 5.99961944502072 0.0 
0.999999970537249 8.99999955168247 0.0 1.0 14.0 0.0 
1.0 20.0 0.0 1.0 22.0 0.0 
1.0 25.0 0.0 6.99998134409618 0.99999175922936 0.0 
10.9999999999491 0.999999999973743 0.0 15.0 1.0 0.0 
18.0 1.0 0.0 24.0 1.0 0.0 
30.0 1.0 0.0 36.0 1.0 0.0 
42.0 1.0 0.0 48.0 1.0 0.0 
54.0 1.0 0.0 60.0 1.0 0.0 
66.0 1.0 0.0 72.0 1.0 0.0 
78.0 1.0 0.0 84.0 1.0 0.0 
90.0 1.0 0.0 92.0 1.0 0.0 
95.0 1.0 0.0 99.0 2.0 0.0 
99.0 5.0 0.0 99.0 6.0 0.0 
99.0 9.0 0.0 99.0 10.0 0.0 
99.0 11.0 0.0 99.0 16.0 0.0 
99.0 19.0 0.0 99.0 20.0 0.0 
99.0 23.0 0.0 2.0 29.0 0.0 
5.0 29.0 0.0 6.0 29.0 0.0 
11.0 29.0 0.0 12.0 29.0 0.0 
13.0 29.0 0.0 18.0 29.0 0.0 
23.0 29.0 0.0 28.0 29.0 0.0 
33.0 29.0 0.0 38.0 29.0 0.0 
43.0 29.0 0.0 48.0 29.0 0.0 
53.0 29.0 0.0 58.0 29.0 0.0 
63.0 29.0 0.0 68.0 29.0 0.0 
73.0 29.0 0.0 78.0 29.0 0.0 
83.0 29.0 0.0 86.0 29.0 0.0 
87.0 29.0 0.0 90.0 29.0 0.0 
91.0 29.0 0.0 94.0 29.0 0.0 
97.0 29.0 0.0 16.0 2.0 0.0 
22.0 28.0 0.0 27.0 28.0 0.0 
52.0 28.0 0.0 57.0 28.0 0.0 
82.0 28.0 0.0 32.0 28.0 0.0 
37.0 28.0 0.0 62.0 28.0 0.0 
67.0 28.0 0.0 42.0 28.0 0.0 
72.0 28.0 0.0 98.0 15.0 0.0 
12.0 28.0 0.0 98.0 19.0 0.0 
89.0 28.0 0.0 98.0 10.0 0.0 
1.99999999531953 9.999999928767 0.0 93.0 2.0 0.0 
2.0 23.0 0.0 98.0 22.0 0.0 
93.0 28.0 0.0 1.99998433821395 6.9998796865685 0.0 
98.0 5.0 0.0 5.0 28.0 0.0 
85.0 28.0 0.0 96.0 28.0 0.0 
1.98413137230705 0.988341966066793 0.0 0.993390117123437 2.98985247870427 0.0 
0.999537928146093 4.99813727245904 0.0 0.999998442801018 7.99998651096591 0.0 
0.999999999636129 10.9999999944437 0.0 1.0 13.0 0.0 
1.0 15.0 0.0 1.0 17.0 0.0 
1.0 19.0 0.0 1.0 21.0 0.0 
1.0 24.0 0.0 1.0 26.0 0.0 
1.0 28.0 0.0 3.99605406296194 0.997383435909015 0.0 
5.99977465143194 0.999865295129002 0.0 7.9999965299808 0.999998450318377 0.0 
9.99999999988557 0.999999999940923 0.0 11.9999999999936 0.999999999996718 0.0 
14.0 1.0 0.0 17.0 1.0 0.0 
19.0 1.0 0.0 21.0 1.0 0.0 
23.0 1.0 0.0 25.0 1.0 0.0 
27.0 1.0 0.0 29.0 1.0 0.0 
31.0 1.0 0.0 33.0 1.0 0.0 
35.0 1.0 0.0 37.0 1.0 0.0 
39.0 1.0 0.0 41.0 1.0 0.0 
43.0 1.0 0.0 45.0 1.0 0.0 
47.0 1.0 0.0 49.0 1.0 0.0 
51.0 1.0 0.0 53.0 1.0 0.0 
55.0 1.0 0.0 57.0 1.0 0.0 
59.0 1.0 0.0 61.0 1.0 0.0 
63.0 1.0 0.0 65.0 1.0 0.0 
67.0 1.0 0.0 69.0 1.0 0.0 
71.0 1.0 0.0 73.0 1.0 0.0 
75.0 1.0 0.0 77.0 1.0 0.0 
79.0 1.0 0.0 81.0 1.0 0.0 
83.0 1.0 0.0 85.0 1.0 0.0 
87.0 1.0 0.0 89.0 1.0 0.0 
91.0 1.0 0.0 94.0 1.0 0.0 
96.0 1.0 0.0 98.0 1.0 0.0 
99.0 3.0 0.0 99.0 7.0 0.0 
99.0 12.0 0.0 99.0 14.0 0.0 
99.0 17.0 0.0 99.0 21.0 0.0 
99.0 24.0 0.0 99.0 26.0 0.0 
99.0 28.0 0.0 3.0 29.0 0.0 
7.0 29.0 0.0 9.0 29.0 0.0 
14.0 29.0 0.0 16.0 29.0 0.0 
19.0 29.0 0.0 21.0 29.0 0.0 
24.0 29.0 0.0 26.0 29.0 0.0 
29.0 29.0 0.0 31.0 29.0 0.0 
34.0 29.0 0.0 36.0 29.0 0.0 
39.0 29.0 0.0 41.0 29.0 0.0 
44.0 29.0 0.0 46.0 29.0 0.0 
49.0 29.0 0.0 51.0 29.0 0.0 
54.0 29.0 0.0 56.0 29.0 0.0 
59.0 29.0 0.0 61.0 29.0 0.0 
64.0 29.0 0.0 66.0 29.0 0.0 
69.0 29.0 0.0 71.0 29.0 0.0 
74.0 29.0 0.0 76.0 29.0 0.0 
79.0 29.0 0.0 81.0 29.0 0.0 
84.0 29.0 0.0 88.0 29.0 0.0 
92.0 29.0 0.0 95.0 29.0 0.0 
98.0 29.0 0.0 98.0 8.0 0.0 
10.0 28.0 0.0 86.0 28.0 0.0 
90.0 28.0 0.0 22.0 2.0 0.0 
28.0 2.0 0.0 34.0 2.0 0.0 
40.0 2.0 0.0 46.0 2.0 0.0 
52.0 2.0 0.0 58.0 2.0 0.0 
64.0 2.0 0.0 70.0 2.0 0.0 
76.0 2.0 0.0 82.0 2.0 0.0 
2.0 16.0 0.0 85.0 27.0 0.0 
88.0 2.0 0.0 11.9999999999928 1.99999999999631 0.0 
89.0 27.0 0.0 8.99999961400676 1.99999982348209 0.0 
5.9997075717904 1.99979502371096 0.0 1.99934767917968 4.99734291783241 0.0 
16.0 28.0 0.0 46.0 28.0 0.0 
76.0 28.0 0.0 2.0 27.0 0.0 
3.99556896721827 1.99618513026716 0.0 97.0 2.0 0.0 
2.0 20.0 0.0 94.0 28.0 0.0 
24.0 28.0 0.0 29.0 28.0 0.0 
34.0 28.0 0.0 39.0 28.0 0.0 
54.0 28.0 0.0 59.0 28.0 0.0 
64.0 28.0 0.0 69.0 28.0 0.0 
98.0 12.0 0.0 7.0 28.0 0.0 
98.0 24.0 0.0 97.0 28.0 0.0 
20.0 2.0 0.0 26.0 2.0 0.0 
32.0 2.0 0.0 38.0 2.0 0.0 
44.0 2.0 0.0 50.0 2.0 0.0 
56.0 2.0 0.0 62.0 2.0 0.0 
68.0 2.0 0.0 74.0 2.0 0.0 
80.0 2.0 0.0 86.0 2.0 0.0 
1.99999981323511 8.99999805583899 0.0 2.0 14.0 0.0 
91.0 2.0 0.0 98.0 20.0 0.0 
18.0 28.0 0.0 48.0 28.0 0.0 
78.0 28.0 0.0 83.0 28.0 0.0 
87.0 28.0 0.0 91.0 28.0 0.0 
98.0 7.0 0.0 14.0 28.0 0.0 
20.0 28.0 0.0 25.0 28.0 0.0 
30.0 28.0 0.0 35.0 28.0 0.0 
40.0 28.0 0.0 44.0 28.0 0.0 
50.0 28.0 0.0 55.0 28.0 0.0 
60.0 28.0 0.0 65.0 28.0 0.0 
70.0 28.0 0.0 74.0 28.0 0.0 
80.0 28.0 0.0 98.0 13.0 0.0 
1.99999999996321 11.9999999994391 0.0 2.0 18.0 0.0 
98.0 17.0 0.0 98.0 18.0 0.0 
8.0 28.0 0.0 98.0 3.0 0.0 
98.0 4.0 0.0 98.0 25.0 0.0 
3.0 28.0 0.0 4.0 28.0 0.0 
1.9971839117747 3.993137435461 0.0 1.98608618048036 1.98526975763388 0.0 
14.0 2.0 0.0 98.0 26.0 0.0 
98.0 27.0 0.0 1.99983949066551 5.99923056007149 0.0 
2.0 22.0 0.0 2.0 25.0 0.0 
7.99999502590895 1.99999772908988 0.0 10.9999999997687 1.99999999988056 0.0 
15.0 2.0 0.0 18.0 2.0 0.0 
[...]
CELL_DATA 3000

SCALARS element_states float
LOOKUP_TABLE default
1 1 1 1 1 0 0 0 0 0 0 0 1 0 0 0 0 0 0 0 0 0 0 0 0 0 0 0 0 0 
0 0 0 0 0 0 0 0 0 0 0 0 0 0 1 0 0 0 0 0 0 0 0 1 1 1 1 1 1 1 
1 1 0 0 0 0 0 0 0 0 0 0 0 0 0 0 0 0 0 1 1 1 1 1 1 1 1 1 1 1 
1 1 1 1 1 1 1 1 1 1 1 1 1 1 1 1 1 1 1 1 1 1 1 1 1 1 1 1 1 1 
1 1 1 1 1 1 1 1 1 1 1 1 1 1 1 1 1 1 1 1 1 1 1 1 1 1 1 1 1 1 
1 1 1 1 1 1 1 1 1 1 1 1 1 1 1 1 1 1 1 1 1 1 1 1 1 1 1 1 1 1 
1 1 1 1 1 1 1 1 0 0 0 0 0 0 0 0 0 0 0 0 0 0 0 0 0 0 0 0 0 0 
0 0 0 1 1 1 1 1 1 1 1 1 1 1 1 1 1 1 1 1 1 1 1 1 1 1 1 1 1 1 
1 1 1 1 1 1 1 1 1 1 1 1 1 1 1 1 1 1 1 1 1 1 1 1 1 1 1 1 1 1 
1 1 1 1 1 1 1 0 0 0 0 0 0 0 0 0 0 0 0 0 0 0 0 0 0 0 0 0 0 0 
0 0 0 0 0 0 0 0 0 0 0 1 1 1 1 1 1 1 1 1 1 1 0 0 0 0 0 0 1 1 
1 1 1 0 1 1 1 1 1 1 0 1 1 1 1 0 0 1 0 1 0 0 1 1 1 1 1 1 1 1 
1 1 0 0 0 0 0 0 0 0 0 0 0 1 1 1 1 1 1 1 1 1 1 1 1 1 1 1 1 1 
1 1 1 1 1 1 1 0 0 0 0 0 0 0 0 0 0 1 1 1 1 1 0 1 1 1 0 1 0 0 
1 1 0 0 1 1 0 0 0 0 0 0 0 0 0 0 0 0 0 0 0 0 0 0 1 1 1 1 1 1 
1 1 1 1 1 1 1 1 1 1 1 1 1 1 1 1 1 1 1 1 1 1 1 1 1 1 1 1 1 1 
1 1 1 1 1 1 1 1 1 1 1 1 1 1 1 1 1 1 1 1 1 1 1 1 1 1 1 1 1 1 
1 1 1 1 1 1 1 1 1 1 1 1 1 1 1 1 1 1 1 0 0 0 0 0 0 1 1 1 1 1 
1 1 1 1 1 1 1 1 1 1 0 0 0 0 0 0 0 0 1 1 0 0 0 0 0 0 0 0 0 0 
1 1 1 0 0 1 1 0 0 0 0 0 1 1 0 0 0 0 0 0 0 0 1 1 1 1 1 1 1 1 
1 0 0 0 0 0 0 0 1 1 0 0 1 1 1 1 0 0 1 0 0 1 1 1 1 0 0 0 0 1 
0 0 0 0 0 0 0 1 1 1 1 1 1 1 1 1 1 1 1 1 1 1 1 1 1 0 1 1 1 1 
1 1 1 1 1 1 0 0 1 1 1 1 1 1 1 1 1 1 0 0 0 0 0 0 0 0 1 1 0 0 
0 0 0 0 1 1 1 1 1 0 1 1 0 1 1 0 0 1 1 1 1 1 1 1 1 1 0 0 1 1 
1 1 1 0 0 0 0 0 0 0 0 1 1 1 1 1 1 1 1 1 1 1 1 1 1 1 1 1 1 1 
1 1 1 1 1 1 1 1 1 1 1 1 1 1 1 1 1 1 1 1 1 1 1 1 1 0 0 0 0 0 
0 0 0 0 0 0 0 0 0 0 0 0 0 0 0 0 0 0 0 0 0 0 1 1 1 1 1 1 0 0 
0 1 0 0 0 1 0 0 0 0 0 1 1 1 1 1 1 1 1 1 1 1 1 1 1 1 0 0 0 0 
1 1 1 0 1 1 1 1 1 1 1 1 1 1 0 1 0 0 0 0 0 0 0 0 0 1 1 0 1 1 
1 1 1 1 0 0 0 0 1 1 1 1 0 0 0 1 1 1 1 1 0 0 0 0 1 1 1 1 1 1 
0 0 0 0 1 1 1 0 0 0 0 1 0 1 0 1 1 1 1 1 0 0 0 1 1 1 0 0 0 0 
1 1 0 0 1 0 0 1 1 1 1 1 1 1 1 0 0 1 1 0 0 0 0 0 0 0 0 0 0 0 
0 0 0 0 0 0 0 1 1 1 1 1 1 1 1 1 1 1 1 1 0 0 1 1 1 1 1 1 0 0 
0 1 1 1 1 0 0 0 1 1 0 0 1 1 1 0 0 0 1 0 0 0 0 1 0 0 0 0 0 0 
1 1 1 1 0 0 0 0 1 1 1 1 0 0 1 1 0 0 1 1 1 1 1 1 0 1 1 1 1 1 
1 1 1 1 1 1 0 1 0 0 0 0 0 1 1 0 0 0 0 1 1 1 1 1 1 1 1 1 1 1 
1 1 1 1 1 0 0 0 1 1 1 1 1 1 1 1 1 1 1 1 1 1 1 1 1 1 1 0 0 0 
0 0 0 0 0 1 1 1 0 0 0 0 1 0 1 0 0 0 0 1 1 1 0 1 0 0 0 0 0 0 
1 1 1 0 1 0 0 1 1 0 0 1 0 0 0 0 0 0 1 0 1 1 1 0 1 1 1 1 0 0 
0 1 1 1 1 1 1 1 1 1 0 1 1 1 0 0 0 0 1 1 1 0 1 0 0 0 0 0 1 0 
1 1 0 1 0 1 1 1 1 1 0 0 1 1 0 0 0 0 0 0 0 0 0 0 0 0 1 1 1 0 
0 1 1 0 0 1 0 1 1 0 0 0 0 0 0 1 1 1 0 0 1 1 0 0 0 1 1 1 1 1 
0 0 1 1 1 0 0 1 0 0 1 0 0 1 0 1 0 1 0 1 0 0 0 0 0 1 0 0 0 0 
0 0 1 0 1 1 1 1 0 0 0 1 1 1 1 0 0 0 0 1 1 1 0 0 0 0 1 0 0 0 
0 0 0 0 0 0 1 0 0 0 0 1 0 0 1 1 1 1 1 1 1 1 0 1 1 1 1 0 0 0 
1 0 0 1 1 1 0 0 0 0 0 0 0 1 0 0 0 0 0 0 0 0 0 1 1 1 1 1 0 0 
0 0 1 1 0 0 1 1 0 0 1 1 0 1 0 0 1 0 0 0 0 0 0 0 0 0 1 1 1 0 
0 0 0 1 0 0 1 0 0 0 0 1 1 0 0 0 0 0 0 0 0 0 0 0 0 0 1 1 1 1 
0 0 0 0 1 1 0 0 0 0 0 0 0 0 0 1 0 0 1 1 0 0 0 0 0 0 0 1 0 0 
0 0 1 0 0 0 1 1 0 0 1 0 0 0 0 0 0 0 1 0 0 0 0 0 0 1 0 0 0 0 
1 1 1 1 0 1 0 0 1 1 1 1 1 0 0 0 0 0 1 1 0 0 0 1 1 1 0 0 1 1 
0 0 0 0 0 1 0 1 0 0 0 0 1 0 0 0 0 0 0 0 0 1 0 0 0 0 1 0 0 0 
1 1 1 1 0 0 1 1 0 0 0 0 1 0 0 0 0 0 0 1 0 0 0 1 1 1 0 1 0 0 
0 0 0 0 0 0 0 0 0 1 1 1 1 1 1 1 1 0 1 1 0 0 0 0 0 0 0 0 0 0 
0 0 1 1 0 0 0 0 1 1 0 0 0 0 1 1 0 0 0 1 1 0 0 0 1 1 0 0 0 0 
0 0 0 0 0 0 0 1 1 0 0 1 1 0 1 0 0 0 0 1 0 1 1 1 0 0 1 1 1 0 
0 1 0 0 0 0 0 1 0 0 0 0 0 0 1 0 1 1 0 0 0 1 1 0 0 0 0 1 0 0 
0 0 1 0 0 0 1 1 0 0 0 0 1 0 0 0 0 0 1 0 0 0 0 0 0 1 1 0 0 0 
0 0 0 0 0 1 0 1 1 0 0 1 1 0 0 1 1 0 0 0 0 0 0 0 0 0 0 1 0 1 
0 0 1 0 0 0 1 1 1 1 0 0 0 1 0 0 0 0 1 1 1 0 0 0 1 0 0 0 0 0 
0 0 0 0 0 0 0 0 0 0 0 0 0 0 1 1 0 0 0 0 0 0 0 1 1 1 1 0 1 1 
1 0 0 1 0 0 0 0 0 0 0 1 1 1 1 0 0 1 0 0 0 0 0 0 0 0 0 0 1 1 
0 0 0 0 0 1 0 0 1 0 1 0 0 0 0 0 0 0 0 0 1 0 0 0 0 0 0 0 0 1 
1 0 0 0 1 1 1 0 0 0 0 1 1 0 0 0 0 0 0 0 0 0 0 0 0 0 0 0 0 1 
1 0 0 0 1 1 0 0 0 1 0 0 0 0 0 0 0 0 0 0 1 0 1 0 0 0 1 1 0 0 
0 1 1 0 0 0 0 0 0 0 1 0 0 0 0 0 0 0 0 0 0 0 0 0 1 0 0 0 0 0 
0 0 0 0 1 0 1 0 0 0 1 1 0 0 0 0 0 0 1 1 0 0 0 0 1 0 1 1 0 1 
0 0 0 0 0 1 0 1 0 0 0 1 0 0 0 0 0 1 0 0 0 0 0 0 1 0 0 0 0 0 
0 1 1 1 0 0 0 0 0 0 0 0 0 0 0 1 1 0 0 0 0 1 1 0 1 0 1 1 0 0 
0 0 0 0 0 0 0 0 0 0 0 0 0 1 0 0 0 0 0 0 1 0 0 0 0 0 0 0 0 0 
0 1 1 0 0 0 0 0 0 0 0 1 1 0 0 0 0 1 0 0 0 0 0 0 0 0 1 0 0 0 
0 0 1 1 0 0 0 1 0 0 0 1 0 0 0 0 0 0 0 0 0 0 1 0 0 0 0 0 0 0 
0 0 0 0 1 1 0 0 0 0 0 1 1 0 1 0 0 0 0 1 0 0 0 0 0 0 0 0 0 1 
0 1 0 0 0 1 0 0 0 1 1 0 0 0 0 0 1 0 0 0 1 0 0 0 0 0 0 0 0 0 
1 0 0 0 1 1 1 1 0 0 0 0 1 0 0 0 0 1 0 0 0 0 0 0 0 0 0 0 1 0 
0 0 1 1 0 0 0 1 1 0 0 0 0 0 0 0 0 0 0 0 0 0 0 0 0 0 0 1 1 0 
0 0 0 0 1 1 1 0 0 0 0 0 0 0 0 0 0 0 0 1 1 0 0 0 0 1 0 0 0 0 
0 0 0 0 1 0 0 0 1 0 0 0 0 0 0 1 1 0 1 0 0 0 0 0 0 0 0 0 0 0 
1 1 0 0 0 0 0 0 0 0 0 0 0 0 1 0 0 1 1 0 0 0 0 0 0 0 0 1 0 1 
0 1 0 0 1 0 0 0 0 0 0 1 1 0 0 1 0 0 0 0 0 1 0 1 1 0 1 0 0 1 
0 0 1 1 0 0 0 0 0 0 0 0 0 0 0 0 0 0 0 0 1 0 0 0 0 0 0 0 0 1 
1 0 1 0 0 0 1 0 0 0 1 0 0 0 0 0 0 1 1 0 0 0 0 1 1 0 0 1 0 0 
0 1 1 0 0 0 0 0 0 0 0 0 1 0 0 0 0 0 0 0 0 0 0 1 0 1 1 1 1 0 
0 0 0 0 0 0 0 0 0 1 1 0 0 0 0 0 0 0 0 0 0 0 0 0 1 1 1 1 1 1 
0 0 0 0 0 0 0 0 1 0 0 0 0 1 0 0 0 0 0 0 0 0 0 0 1 0 0 0 0 0 
1 1 1 0 0 0 0 0 0 0 0 1 1 1 0 0 0 0 0 0 0 1 1 0 0 0 0 1 0 0 
1 0 0 1 0 1 0 0 1 0 0 0 0 1 1 1 0 0 1 1 1 0 0 0 0 0 0 0 0 0 
0 0 0 0 0 0 0 0 0 0 0 0 1 0 0 0 1 1 1 1 0 0 1 1 0 1 1 0 0 0 
1 1 1 1 0 0 0 1 1 0 0 0 0 0 0 0 0 0 0 1 0 0 0 0 0 0 0 0 0 0 
0 0 0 1 1 1 0 0 0 0 0 0 0 1 0 0 1 1 0 0 0 1 1 0 0 0 0 0 0 0 
0 0 0 0 0 0 0 0 0 1 0 0 0 0 0 0 0 0 0 0 0 0 0 0 0 1 0 1 1 0 
0 1 1 1 1 1 0 0 0 0 0 0 0 0 1 0 0 1 0 0 0 0 0 0 0 0 0 0 0 0 
0 1 0 0 0 0 0 0 0 0 1 1 1 0 0 0 0 0 0 0 0 0 0 0 0 0 0 1 0 0 
0 0 0 0 1 0 0 0 0 1 1 0 0 0 0 0 0 0 0 0 0 0 0 0 0 0 0 0 1 0 
0 0 0 0 0 0 0 0 0 0 0 0 1 1 0 0 1 0 0 0 0 0 0 0 0 0 0 1 0 0 
0 0 0 0 0 0 0 0 1 0 0 1 1 0 0 0 0 0 1 1 1 1 1 1 0 0 0 0 0 0 
0 0 0 0 0 0 0 0 0 0 0 0 0 0 0 0 1 1 1 0 0 0 0 0 0 0 0 0 0 0 
0 0 0 0 0 1 0 0 0 0 0 0 0 0 1 1 0 0 0 0 0 0 1 0 0 0 0 0 1 1 
1 1 0 0 0 0 0 0 0 0 0 0 0 0 0 0 0 0 0 1 1 0 0 0 1 0 0 0 1 0 
1 0 0 0 0 0 0 1 0 1 0 0 1 0 1 1 1 1 0 1 0 0 0 0 1 1 0 1 1 1 


SCALARS sensitivity_number float
LOOKUP_TABLE default
0.1346201255648025 0.1379203135660522 0.14128673446713505 0.13795163286536416 0.14132387843408808 0.05514726084259501 
7.00688438397263e-07 1.8028169711318985e-07 1.8065865527522099e-07 0.021233803566763184 0.005700079899311998 1.9314385195398694e-07 
0.06333558811351393 1.4945157018610736e-08 1.0500660129562148e-08 2.091102097234419e-08 1.5770203290546955e-08 0.06855734782753108 
0.008342693605334552 7.047057717707088e-07 7.339122567074275e-07 7.118518024690588e-07 7.056162097313854e-07 6.986814391537451e-07 
6.979762321359079e-07 6.888009785328806e-07 7.091312151423932e-07 1.034931458345592e-07 4.4179158002633304e-07 0.00893753877103965 
4.189415957185126e-07 3.757514218825861e-07 3.969399225641674e-07 0.00988927224694742 4.077333415083957e-07 0.03838031658809837 
4.0609873174546895e-07 1.8325286846559207e-07 4.0365983055242427e-07 0.0529723296331287 4.510847904571243e-07 4.7511664359083527e-07 
4.2628569542508676e-07 0.03533109145109921 0.05702111363789805 4.039988611174641e-07 4.4978349406944523e-07 4.2518643312017263e-07 
5.02264738877442e-07 0.0090831387927263 2.0611165091782887e-07 4.7120534694478087e-07 0.05145679081932537 0.10612280296296805 
0.11295271359468224 0.07646141358416257 0.13331789378106848 0.13468693630955145 0.14133818623802538 0.13795892472155874 
0.14464346873776912 0.09046427685885954 0.05622301563714677 8.504847084187702e-07 8.713551504745909e-07 8.673333878828319e-07 
8.92084270771128e-07 8.797810714014171e-07 9.047833113315579e-07 9.18339549302755e-07 9.493859127446096e-07 9.331454607792498e-07 
9.856689398626419e-07 9.67319966633548e-07 1.0065981238115028e-06 1.02359433284395e-06 1.0674453062623616e-06 1.0721818775747026e-06 
0.06157831758212306 0.06899582497092253 0.1031268227652804 0.12393777749765687 0.09163938904264923 0.21019113438897477 
0.3456137300704711 0.3464673953729121 0.13299205796323113 0.13296420083292068 0.13295805947703374 0.13293644967522486 
0.13291120904283388 0.13294906706936727 0.13289437510038815 0.13335745392034895 0.13465832596426758 0.1408959211446329 
0.13734628292410114 0.14476508099492155 0.14810047240652083 0.15053513933546184 0.1520648019143428 0.1528819990892057 
0.1533371563100303 0.1532347307878495 0.15329699584582657 0.153332459720655 0.15325584901874054 0.15321854010834435 
0.15315144349102447 0.1531843734193886 0.15312685220861433 0.15312375081441537 0.15321404240076367 0.15349256965307573 
0.15534700307394583 0.15413488792088412 0.15979375074226543 0.15725120299005563 0.16269986953844115 0.16557027985620898 
0.1702038916792134 0.16808625986401807 0.17480311596867704 0.1722146521309865 0.17900542827447627 0.18573736718416978 
0.20318826790257166 0.19458989048542447 0.20796653710614263 0.20797963740894962 0.20144399141076783 0.18813290393544044 
0.14186448569796528 0.1666607542925637 0.104482367982317 0.1200813232602088 0.09155293031207133 0.08054906729381656 
0.07566963208184252 0.0748858808295913 0.09049122606721877 0.08258198524539676 0.0988109121431246 0.11097885794122193 
0.11398471029874853 0.11361110051943624 0.11246881566776738 0.1131591700825038 0.11182444169331603 0.11120658774141394 
0.10995352772607682 0.11057876861401904 0.10870279102628898 0.10932799398444266 0.10807773541374924 0.10745287972524598 
0.1062037035224875 0.10682819948186095 0.10495520216021838 0.10557936596077042 0.10433118552227737 0.10370732276152687 
0.10246002319911982 0.10308360330819723 0.10224501591445218 0.10220526480666463 0.10271163068661622 0.1032518446985187 
0.10433200531550828 0.10379196436321594 0.105411864818655 0.10487198325140516 0.10595164249383277 0.10649130670426725 
0.10703310694963329 0.10757269906132913 0.10804861924087249 0.10907802925664543 0.10919941400783155 0.10707650337326949 
0.10843322333275078 0.11421630064303888 0.23482589920723435 0.19628181174466422 0.23123884143616494 0.10413238591623106 
0.1511301568895461 0.06157169022513763 0.020504638315109906 1.845962001625516e-07 2.1995549600224253e-07 1.5016371051845984e-07 
1.3495182030500504e-07 1.200056697385428e-07 9.551362785408876e-08 1.0744927698570262e-07 8.439240717260963e-08 7.40591753029984e-08 
6.451413450317255e-08 4.74596321428042e-08 5.567447821686253e-08 3.9832564823238346e-08 3.2815119683883186e-08 2.0714785723185452e-08 
2.643553504499231e-08 1.566427225293818e-08 7.588882160509337e-09 1.1288187786246822e-08 4.989592828566988e-09 2.8719561387707768e-09 
1.8044351289077852e-09 1.2369469009147532e-09 1.3093312723500635e-09 0.38309755950415847 0.31542526341994553 0.3484413780111096 
0.2983167136849541 0.27765194350782463 0.2306917716317687 0.25521081351545793 0.20571562027045076 0.1816822825841875 
0.15981997400241607 0.1409899618831338 0.12512612558612113 0.10168116630179523 0.11216116535508248 0.09319471678112072 
0.08666243346485374 0.0821376993818687 0.07817920655064056 0.07943728453082788 0.07782320256535073 0.0779874097899754 
0.07845859742791254 0.080241848816884 0.07920320072510058 0.08150856597080486 0.0828930813007774 0.08413926807369868 
0.0853090916932501 0.08514848293118535 0.08462541692254892 0.08331426123855974 0.08214201033506287 0.08345662961265837 
0.08227287076104882 0.08531143741774239 0.08710166308146995 0.08876383923673598 0.09194927239491461 0.09035818947469758 
0.09354676975632682 0.09515002136155486 0.0967559478861958 0.10041895949730839 0.09845651076308824 0.10260281095909979 
0.10498915009017076 0.10737421708112374 0.11212469220419156 0.10975496096774744 0.11447641507371804 0.11680763661906651 
0.11918162711876913 0.12524658625794421 0.1218096362566232 0.13005147875769288 0.13620883400893458 0.1421436748347445 
0.14451248669632222 0.14559766297828064 0.13770699349572255 0.12490094647842602 0.10907257716296097 0.06886481911980337 
0.091975164829118 0.04922471336075895 0.013154510458158882 1.3920708520515638e-07 1.2317379924381767e-07 1.1582180271254771e-07 
1.2883627542951767e-07 1.2342635773260206e-07 1.209481465011999e-07 1.1740472019264105e-07 1.1972606959374358e-07 1.1605400023998533e-07 
1.154591441784093e-07 1.1545180651562087e-07 1.1368695132185182e-07 1.1502714660646332e-07 1.1125261717001335e-07 1.0723647425099264e-07 
1.0153207313985931e-07 8.533692672371911e-08 9.414668477560601e-08 7.54994865502199e-08 6.51810405902315e-08 4.5551422413226636e-08 
5.5079486138046904e-08 3.7004736807052206e-08 2.9462447907495664e-08 1.704477351610355e-08 2.281894574244196e-08 8.056029958623705e-09 
1.2130810595578384e-08 5.20243808806425e-09 2.958968461343562e-09 1.238588824611485e-09 1.8169770565690937e-09 0.09487394972803746 
0.10344261067103296 0.0806989066108003 0.08748633635514949 0.08896170900481959 0.094993381142185 0.10174025156685294 
0.10018559140425105 0.11716543479158945 0.13508227878804688 0.08184622566124664 0.006383980288498832 1.1580419694532574e-07 
1.1835953728400903e-07 9.76395948450916e-08 4.3017327523969653e-08 5.0517896947921397e-08 0.21764907928631394 0.13457906941438438 
0.13458748131017143 0.06457257350625815 0.1010025203655111 1.0018388232710347e-08 0.273282090553908 0.2893051582120356 
0.14132305724248467 0.14465778289428508 0.13913535623516632 0.14226103997864167 4.2997974007731645e-09 0.08812179490136941 
0.08333779006076501 0.10348036101188458 0.10522170547059136 1.149263032451859e-07 1.1422289013088212e-07 0.1379453915696134 
0.05064171812091419 0.09619764798093741 8.642188769357493e-07 0.05044969102187126 0.13453677360260735 0.13439295911883456 
0.13617649710610172 0.1463752652093329 0.14476639889654644 0.07092599417769102 0.07165882740893166 0.07135921360864879 
0.1855812816459755 0.12208066251263466 0.04574709087621291 0.010253343592571955 1.3341923167346902e-07 1.4746141032195405e-07 
1.211115804851671e-07 1.0917115047123169e-07 6.726983991336975e-08 5.8588001689471695e-08 3.608584966468204e-08 1.8725498370668295e-08 
1.4083254705125012e-08 0.31241804068497947 0.3065396356362034 0.25709643885640343 0.23831787348643366 0.13977969963084 
0.15636860031859187 0.12570583848223488 0.11374940540715668 0.07924237543359572 0.07982085809853341 0.08476959903529752 
0.0863197495200897 0.08619743206682612 0.08695733643999862 0.0931202174831663 0.0940629219597752 0.09784373050254254 
0.09888520755085223 0.11373277554774243 0.11534689712082555 0.12978162875661645 0.1340282375921343 0.10957763789199511 
0.09613804703127919 0.03166741020151825 0.018830469327118925 1.3288549293302296e-07 1.235375308781126e-07 1.0048954094180903e-07 
7.674245081897636e-08 6.708610595913346e-08 4.016536959508793e-08 3.2675792780375604e-08 4.379365779247341e-09 0.14717358778914658 
0.07897771200048857 0.08323096242355928 0.1121181419693022 0.12429983194468751 1.0566016799599817e-07 0.08658710284573916 
0.09209173863281192 0.12246473932362462 0.05167384556017114 0.09688634830864037 1.3558005532060032e-07 7.661993522837482e-08 
0.12693389320274917 0.13735938833527475 4.845031398845005e-08 8.763122502772095e-07 0.07191172019224587 0.0755740936506777 
2.393806818226217e-08 2.0114659115352258e-08 8.514763675703005e-07 8.585204439175058e-08 6.949745996811538e-09 1.1189444450947754e-08 
8.668699646820486e-07 8.882597988766547e-07 9.137636379362888e-07 9.005939846443276e-07 9.440030608035027e-07 9.28156377996449e-07 
9.616588437838925e-07 9.802763233420308e-07 1.0211775572215242e-06 1.0021704421992834e-06 1.0638405501679118e-06 1.076648882796462e-06 
0.10033265288021603 0.13397724651800416 0.09379037696528394 0.22086946487031262 0.13458658660265943 0.13411820444487454 
0.13387243842975272 0.13441573676284427 0.1474264302396817 0.14739330524800678 0.14744716497637744 0.14729694649541242 
0.14733743763588253 0.14727069232841794 0.14725283376156564 0.14721853257547918 0.14723686452394805 0.14717479558357277 
0.1471963283234037 0.14717546620997105 0.14725543329451973 0.14822614794084285 0.14754948821125607 0.15136735725789852 
0.14949518945193055 0.1535484805618776 0.15556161713775304 0.15772967044637343 0.15703796746662388 0.15743799469266237 
0.1577074733751675 0.1578386794582698 0.16011482653474063 0.17000948320846554 0.1646569768854076 0.17318348756927893 
0.17408822305068544 0.16753600970248428 0.15691196389251147 0.13113078625380364 0.14450175261755863 0.10306308258106568 
0.11656003684116711 0.09180976688215531 0.08067779898512951 0.06979581277610987 0.07189322398732559 0.0837329130872177 
0.07526454496207399 0.08721525496473724 0.07432368694639217 0.0740795887075008 0.07424913223931523 0.07304594002457673 
0.07333079493258232 0.07265380053071438 0.0723059915304828 0.07159073464444453 0.0719468420021571 0.07087748163810238 
0.07123393749097186 0.07052106749199802 0.07016478283619387 0.06945250356087383 0.06980858978532781 0.06874061306733512 
0.0690965130940861 0.06838480426700982 0.0680290789325854 0.06731787479532685 0.06767343856545012 0.06729267293278669 
0.0671997963043288 0.06764898476717343 0.06805875015674642 0.0688780852464633 0.06846844938775382 0.06969722532671854 
0.06928766208590666 0.07010670910105747 0.07051520288029346 0.0774011746813581 0.09338848926557994 0.08569746443312411 
0.11339766786438515 1.664271325735516e-07 8.673254554149913e-08 2.972390974002478e-08 6.7222458967794976e-09 1.6202839695950018e-09 
2.647804412137488e-09 0.17540069175397371 0.19619913135968578 0.08050591652902049 0.07924752191244222 0.07890567029603535 
0.0818629220907331 0.08752866409994396 0.0907597913087325 0.0959348187901797 0.10696410356456604 0.1087043061149668 
0.11042868934596356 0.11991605641274902 0.1313682328577155 0.056464422334930243 1.3235050382035825e-07 1.1315189645952378e-07 
1.1176470282803224e-07 1.0935565545869686e-07 9.387761790905254e-08 5.748898284452435e-08 2.601387814906436e-08 2.6641404727355716e-09 
0.14887049449361814 0.1617821574225875 7.985669416205142e-08 4.6681826347525844e-08 9.47384868439773e-07 8.771559820560702e-08 
9.300370871858314e-08 0.03382481141410761 0.0336792353346572 5.451749415026539e-08 6.092087448482739e-08 5.32871551402906e-08 
0.13794429566736677 0.22897134744598902 0.09193931820653373 1.0633848418319067e-06 1.1343729054019242e-07 0.18922921921664002 
0.20170810225336058 4.28014244456145e-09 7.291276532318199e-09 0.033970492577763634 8.564197205872031e-07 4.294011880173887e-08 
0.08568701660367817 0.10078235011323605 1.1143111362646476e-07 9.42527873078055e-08 9.917316164009315e-08 7.13822805726029e-08 
6.282470529053534e-08 3.943482059300919e-08 0.009448094813393811 0.04262365069303909 0.11690065061009072 0.0817625706126222 
0.09108359528633322 0.10146913125483938 0.10137261769358424 0.09985272853369485 0.10144814941902765 0.11539270105453599 
0.09940951422353848 0.04419653760571716 1.3787178785094635e-07 1.0244972881615214e-07 9.656535431992159e-07 9.886957700780275e-07 
4.97844088438958e-08 5.71232378948897e-08 0.08984338956949561 0.0956804233075012 1.0955302246277809e-08 1.5267995175922142e-08 
0.22030651140031401 0.22749383646806268 0.14463733688642547 0.13771417528881771 7.2163056995785884e-09 0.050642073024550094 
0.09618084007913172 0.04263831608228047 1.092908858485363e-06 0.13696140651184088 0.13769705029687554 0.13406000291912204 
0.13738935265434996 0.033385945661857964 0.03353308452162139 0.03310091403876609 0.03325766676064686 0.05819991595938891 
1.3381939308084258e-07 1.4098809914365523e-07 1.2358759334458895e-07 7.314179884819684e-08 6.488816537770767e-08 2.515627930460652e-08 
2.0020552195004184e-08 0.2121331209417165 0.08073532525091136 0.08103697190927475 0.08551627346459602 0.08817168759378703 
0.09540927296324017 0.09897672015917924 0.10221879324743476 0.10179854708481323 0.10016762902569872 0.10257574640644299 
0.10234915725987458 0.10401138418141213 0.10960118261374573 0.10578386988877066 0.10196977103956133 0.06717262981322379 
0.04863743482726266 1.4587050985480052e-07 0.13660221782650095 0.13581199171725403 0.08061427712469725 0.08072000971923535 