# vtk DataFile Version 3.0
Results from optimization
ASCII
DATASET UNSTRUCTURED_GRID

POINTS 3131 float
0.0 0.0 0.0 0.0 30.0 0.0 
100.0 0.0 0.0 100.0 30.0 0.0 
0.0 1.0 0.0 0.0 2.0 0.0 
0.0 3.0 0.0 0.0 4.0 0.0 
0.0 5.0 0.0 0.0 6.0 0.0 
0.0 7.0 0.0 0.0 8.0 0.0 
0.0 9.0 0.0 0.0 10.0 0.0 
0.0 11.0 0.0 0.0 12.0 0.0 
0.0 13.0 0.0 0.0 14.0 0.0 
0.0 15.0 0.0 0.0 16.0 0.0 
0.0 17.0 0.0 0.0 18.0 0.0 
0.0 19.0 0.0 0.0 20.0 0.0 
0.0 21.0 0.0 0.0 22.0 0.0 
0.0 23.0 0.0 0.0 24.0 0.0 
0.0 25.0 0.0 0.0 26.0 0.0 
0.0 27.0 0.0 0.0 28.0 0.0 
0.0 29.0 0.0 1.0 0.0 0.0 
2.0 0.0 0.0 3.0 0.0 0.0 
4.0 0.0 0.0 5.0 0.0 0.0 
6.0 0.0 0.0 7.0 0.0 0.0 
8.0 0.0 0.0 9.0 0.0 0.0 
10.0 0.0 0.0 11.0 0.0 0.0 
12.0 0.0 0.0 13.0 0.0 0.0 
14.0 0.0 0.0 15.0 0.0 0.0 
16.0 0.0 0.0 17.0 0.0 0.0 
18.0 0.0 0.0 19.0 0.0 0.0 
20.0 0.0 0.0 21.0 0.0 0.0 
22.0 0.0 0.0 23.0 0.0 0.0 
24.0 0.0 0.0 25.0 0.0 0.0 
26.0 0.0 0.0 27.0 0.0 0.0 
28.0 0.0 0.0 29.0 0.0 0.0 
30.0 0.0 0.0 31.0 0.0 0.0 
32.0 0.0 0.0 33.0 0.0 0.0 
34.0 0.0 0.0 35.0 0.0 0.0 
36.0 0.0 0.0 37.0 0.0 0.0 
38.0 0.0 0.0 39.0 0.0 0.0 
40.0 0.0 0.0 41.0 0.0 0.0 
42.0 0.0 0.0 43.0 0.0 0.0 
44.0 0.0 0.0 45.0 0.0 0.0 
46.0 0.0 0.0 47.0 0.0 0.0 
48.0 0.0 0.0 49.0 0.0 0.0 
50.0 0.0 0.0 51.0 0.0 0.0 
52.0 0.0 0.0 53.0 0.0 0.0 
54.0 0.0 0.0 55.0 0.0 0.0 
56.0 0.0 0.0 57.0 0.0 0.0 
58.0 0.0 0.0 59.0 0.0 0.0 
60.0 0.0 0.0 61.0 0.0 0.0 
62.0 0.0 0.0 63.0 0.0 0.0 
64.0 0.0 0.0 65.0 0.0 0.0 
66.0 0.0 0.0 67.0 0.0 0.0 
68.0 0.0 0.0 69.0 0.0 0.0 
70.0 0.0 0.0 71.0 0.0 0.0 
72.0 0.0 0.0 73.0 0.0 0.0 
74.0 0.0 0.0 75.0 0.0 0.0 
76.0 0.0 0.0 77.0 0.0 0.0 
78.0 0.0 0.0 79.0 0.0 0.0 
80.0 0.0 0.0 81.0 0.0 0.0 
82.0 0.0 0.0 83.0 0.0 0.0 
84.0 0.0 0.0 85.0 0.0 0.0 
86.0 0.0 0.0 87.0 0.0 0.0 
88.0 0.0 0.0 89.0 0.0 0.0 
90.0 0.0 0.0 91.0 0.0 0.0 
92.0 0.0 0.0 93.0 0.0 0.0 
94.0 0.0 0.0 95.0 0.0 0.0 
96.0 0.0 0.0 97.0 0.0 0.0 
98.0 0.0 0.0 99.0 0.0 0.0 
100.0 1.0 0.0 100.0 2.0 0.0 
100.0 3.0 0.0 100.0 4.0 0.0 
100.0 5.0 0.0 100.0 6.0 0.0 
100.0 7.0 0.0 100.0 8.0 0.0 
100.0 9.0 0.0 100.0 10.0 0.0 
100.0 11.0 0.0 100.0 12.0 0.0 
100.0 13.0 0.0 100.0 14.0 0.0 
100.0 15.0 0.0 100.0 16.0 0.0 
100.0 17.0 0.0 100.0 18.0 0.0 
100.0 19.0 0.0 100.0 20.0 0.0 
100.0 21.0 0.0 100.0 22.0 0.0 
100.0 23.0 0.0 100.0 24.0 0.0 
100.0 25.0 0.0 100.0 26.0 0.0 
100.0 27.0 0.0 100.0 28.0 0.0 
100.0 29.0 0.0 1.0 30.0 0.0 
2.0 30.0 0.0 3.0 30.0 0.0 
4.0 30.0 0.0 5.0 30.0 0.0 
6.0 30.0 0.0 7.0 30.0 0.0 
8.0 30.0 0.0 9.0 30.0 0.0 
10.0 30.0 0.0 11.0 30.0 0.0 
12.0 30.0 0.0 13.0 30.0 0.0 
14.0 30.0 0.0 15.0 30.0 0.0 
16.0 30.0 0.0 17.0 30.0 0.0 
18.0 30.0 0.0 19.0 30.0 0.0 
20.0 30.0 0.0 21.0 30.0 0.0 
22.0 30.0 0.0 23.0 30.0 0.0 
24.0 30.0 0.0 25.0 30.0 0.0 
26.0 30.0 0.0 27.0 30.0 0.0 
28.0 30.0 0.0 29.0 30.0 0.0 
30.0 30.0 0.0 31.0 30.0 0.0 
32.0 30.0 0.0 33.0 30.0 0.0 
34.0 30.0 0.0 35.0 30.0 0.0 
36.0 30.0 0.0 37.0 30.0 0.0 
38.0 30.0 0.0 39.0 30.0 0.0 
40.0 30.0 0.0 41.0 30.0 0.0 
42.0 30.0 0.0 43.0 30.0 0.0 
44.0 30.0 0.0 45.0 30.0 0.0 
46.0 30.0 0.0 47.0 30.0 0.0 
48.0 30.0 0.0 49.0 30.0 0.0 
50.0 30.0 0.0 51.0 30.0 0.0 
52.0 30.0 0.0 53.0 30.0 0.0 
54.0 30.0 0.0 55.0 30.0 0.0 
56.0 30.0 0.0 57.0 30.0 0.0 
58.0 30.0 0.0 59.0 30.0 0.0 
60.0 30.0 0.0 61.0 30.0 0.0 
62.0 30.0 0.0 63.0 30.0 0.0 
64.0 30.0 0.0 65.0 30.0 0.0 
66.0 30.0 0.0 67.0 30.0 0.0 
68.0 30.0 0.0 69.0 30.0 0.0 
70.0 30.0 0.0 71.0 30.0 0.0 
72.0 30.0 0.0 73.0 30.0 0.0 
74.0 30.0 0.0 75.0 30.0 0.0 
76.0 30.0 0.0 77.0 30.0 0.0 
78.0 30.0 0.0 79.0 30.0 0.0 
80.0 30.0 0.0 81.0 30.0 0.0 
82.0 30.0 0.0 83.0 30.0 0.0 
84.0 30.0 0.0 85.0 30.0 0.0 
86.0 30.0 0.0 87.0 30.0 0.0 
88.0 30.0 0.0 89.0 30.0 0.0 
90.0 30.0 0.0 91.0 30.0 0.0 
92.0 30.0 0.0 93.0 30.0 0.0 
94.0 30.0 0.0 95.0 30.0 0.0 
96.0 30.0 0.0 97.0 30.0 0.0 
98.0 30.0 0.0 99.0 30.0 0.0 
16.0 1.0 0.0 22.0 1.0 0.0 
28.0 1.0 0.0 34.0 1.0 0.0 
40.0 1.0 0.0 46.0 1.0 0.0 
52.0 1.0 0.0 58.0 1.0 0.0 
64.0 1.0 0.0 70.0 1.0 0.0 
76.0 1.0 0.0 82.0 1.0 0.0 
15.0 29.0 0.0 20.0 29.0 0.0 
25.0 29.0 0.0 30.0 29.0 0.0 
35.0 29.0 0.0 40.0 29.0 0.0 
45.0 29.0 0.0 50.0 29.0 0.0 
55.0 29.0 0.0 60.0 29.0 0.0 
65.0 29.0 0.0 70.0 29.0 0.0 
75.0 29.0 0.0 80.0 29.0 0.0 
99.0 13.0 0.0 85.0 29.0 0.0 
1.0 12.0 0.0 1.0 18.0 0.0 
99.0 18.0 0.0 88.0 1.0 0.0 
8.99999999994914 0.999999999973743 0.0 99.0 8.0 0.0 
8.0 29.0 0.0 89.0 29.0 0.0 
99.0 22.0 0.0 0.999995859328856 6.99995963616369 0.0 
1.0 23.0 0.0 93.0 1.0 0.0 
93.0 29.0 0.0 4.99897846844128 0.999401131561401 0.0 
99.0 4.0 0.0 99.0 25.0 0.0 
4.0 29.0 0.0 0.998018130894958 3.99456365118287 0.0 
96.0 29.0 0.0 1.0 27.0 0.0 
2.98755098591844 0.99220568858159 0.0 13.0 1.0 0.0 
97.0 1.0 0.0 99.0 27.0 0.0 
0.999999999429266 9.99999999116626 0.0 1.0 16.0 0.0 
20.0 1.0 0.0 26.0 1.0 0.0 
32.0 1.0 0.0 38.0 1.0 0.0 
44.0 1.0 0.0 50.0 1.0 0.0 
56.0 1.0 0.0 62.0 1.0 0.0 
68.0 1.0 0.0 74.0 1.0 0.0 
80.0 1.0 0.0 86.0 1.0 0.0 
99.0 15.0 0.0 10.0 29.0 0.0 
17.0 29.0 0.0 22.0 29.0 0.0 
27.0 29.0 0.0 32.0 29.0 0.0 
37.0 29.0 0.0 42.0 29.0 0.0 
47.0 29.0 0.0 52.0 29.0 0.0 
57.0 29.0 0.0 62.0 29.0 0.0 
67.0 29.0 0.0 72.0 29.0 0.0 
77.0 29.0 0.0 82.0 29.0 0.0 
0.982043965477184 1.98304218642421 0.0 1.0 29.0 0.0 
99.0 1.0 0.0 99.0 29.0 0.0 
0.983223912217958 0.987621281485569 0.0 0.999949380687591 5.99961944502072 0.0 
0.999999970537249 8.99999955168247 0.0 1.0 14.0 0.0 
1.0 20.0 0.0 1.0 22.0 0.0 
1.0 25.0 0.0 6.99998134409618 0.99999175922936 0.0 
10.9999999999491 0.999999999973743 0.0 15.0 1.0 0.0 
18.0 1.0 0.0 24.0 1.0 0.0 
30.0 1.0 0.0 36.0 1.0 0.0 
42.0 1.0 0.0 48.0 1.0 0.0 
54.0 1.0 0.0 60.0 1.0 0.0 
66.0 1.0 0.0 72.0 1.0 0.0 
78.0 1.0 0.0 84.0 1.0 0.0 
90.0 1.0 0.0 92.0 1.0 0.0 
95.0 1.0 0.0 99.0 2.0 0.0 
99.0 5.0 0.0 99.0 6.0 0.0 
99.0 9.0 0.0 99.0 10.0 0.0 
99.0 11.0 0.0 99.0 16.0 0.0 
99.0 19.0 0.0 99.0 20.0 0.0 
99.0 23.0 0.0 2.0 29.0 0.0 
5.0 29.0 0.0 6.0 29.0 0.0 
11.0 29.0 0.0 12.0 29.0 0.0 
13.0 29.0 0.0 18.0 29.0 0.0 
23.0 29.0 0.0 28.0 29.0 0.0 
33.0 29.0 0.0 38.0 29.0 0.0 
43.0 29.0 0.0 48.0 29.0 0.0 
53.0 29.0 0.0 58.0 29.0 0.0 
63.0 29.0 0.0 68.0 29.0 0.0 
73.0 29.0 0.0 78.0 29.0 0.0 
83.0 29.0 0.0 86.0 29.0 0.0 
87.0 29.0 0.0 90.0 29.0 0.0 
91.0 29.0 0.0 94.0 29.0 0.0 
97.0 29.0 0.0 16.0 2.0 0.0 
22.0 28.0 0.0 27.0 28.0 0.0 
52.0 28.0 0.0 57.0 28.0 0.0 
82.0 28.0 0.0 32.0 28.0 0.0 
37.0 28.0 0.0 62.0 28.0 0.0 
67.0 28.0 0.0 42.0 28.0 0.0 
72.0 28.0 0.0 98.0 15.0 0.0 
12.0 28.0 0.0 98.0 19.0 0.0 
89.0 28.0 0.0 98.0 10.0 0.0 
1.99999999531953 9.999999928767 0.0 93.0 2.0 0.0 
2.0 23.0 0.0 98.0 22.0 0.0 
93.0 28.0 0.0 1.99998433821395 6.9998796865685 0.0 
98.0 5.0 0.0 5.0 28.0 0.0 
85.0 28.0 0.0 96.0 28.0 0.0 
1.98413137230705 0.988341966066793 0.0 0.993390117123437 2.98985247870427 0.0 
0.999537928146093 4.99813727245904 0.0 0.999998442801018 7.99998651096591 0.0 
0.999999999636129 10.9999999944437 0.0 1.0 13.0 0.0 
1.0 15.0 0.0 1.0 17.0 0.0 
1.0 19.0 0.0 1.0 21.0 0.0 
1.0 24.0 0.0 1.0 26.0 0.0 
1.0 28.0 0.0 3.99605406296194 0.997383435909015 0.0 
5.99977465143194 0.999865295129002 0.0 7.9999965299808 0.999998450318377 0.0 
9.99999999988557 0.999999999940923 0.0 11.9999999999936 0.999999999996718 0.0 
14.0 1.0 0.0 17.0 1.0 0.0 
19.0 1.0 0.0 21.0 1.0 0.0 
23.0 1.0 0.0 25.0 1.0 0.0 
27.0 1.0 0.0 29.0 1.0 0.0 
31.0 1.0 0.0 33.0 1.0 0.0 
35.0 1.0 0.0 37.0 1.0 0.0 
39.0 1.0 0.0 41.0 1.0 0.0 
43.0 1.0 0.0 45.0 1.0 0.0 
47.0 1.0 0.0 49.0 1.0 0.0 
51.0 1.0 0.0 53.0 1.0 0.0 
55.0 1.0 0.0 57.0 1.0 0.0 
59.0 1.0 0.0 61.0 1.0 0.0 
63.0 1.0 0.0 65.0 1.0 0.0 
67.0 1.0 0.0 69.0 1.0 0.0 
71.0 1.0 0.0 73.0 1.0 0.0 
75.0 1.0 0.0 77.0 1.0 0.0 
79.0 1.0 0.0 81.0 1.0 0.0 
83.0 1.0 0.0 85.0 1.0 0.0 
87.0 1.0 0.0 89.0 1.0 0.0 
91.0 1.0 0.0 94.0 1.0 0.0 
96.0 1.0 0.0 98.0 1.0 0.0 
99.0 3.0 0.0 99.0 7.0 0.0 
99.0 12.0 0.0 99.0 14.0 0.0 
99.0 17.0 0.0 99.0 21.0 0.0 
99.0 24.0 0.0 99.0 26.0 0.0 
99.0 28.0 0.0 3.0 29.0 0.0 
7.0 29.0 0.0 9.0 29.0 0.0 
14.0 29.0 0.0 16.0 29.0 0.0 
19.0 29.0 0.0 21.0 29.0 0.0 
24.0 29.0 0.0 26.0 29.0 0.0 
29.0 29.0 0.0 31.0 29.0 0.0 
34.0 29.0 0.0 36.0 29.0 0.0 
39.0 29.0 0.0 41.0 29.0 0.0 
44.0 29.0 0.0 46.0 29.0 0.0 
49.0 29.0 0.0 51.0 29.0 0.0 
54.0 29.0 0.0 56.0 29.0 0.0 
59.0 29.0 0.0 61.0 29.0 0.0 
64.0 29.0 0.0 66.0 29.0 0.0 
69.0 29.0 0.0 71.0 29.0 0.0 
74.0 29.0 0.0 76.0 29.0 0.0 
79.0 29.0 0.0 81.0 29.0 0.0 
84.0 29.0 0.0 88.0 29.0 0.0 
92.0 29.0 0.0 95.0 29.0 0.0 
98.0 29.0 0.0 98.0 8.0 0.0 
10.0 28.0 0.0 86.0 28.0 0.0 
90.0 28.0 0.0 22.0 2.0 0.0 
28.0 2.0 0.0 34.0 2.0 0.0 
40.0 2.0 0.0 46.0 2.0 0.0 
52.0 2.0 0.0 58.0 2.0 0.0 
64.0 2.0 0.0 70.0 2.0 0.0 
76.0 2.0 0.0 82.0 2.0 0.0 
2.0 16.0 0.0 85.0 27.0 0.0 
88.0 2.0 0.0 11.9999999999928 1.99999999999631 0.0 
89.0 27.0 0.0 8.99999961400676 1.99999982348209 0.0 
5.9997075717904 1.99979502371096 0.0 1.99934767917968 4.99734291783241 0.0 
16.0 28.0 0.0 46.0 28.0 0.0 
76.0 28.0 0.0 2.0 27.0 0.0 
3.99556896721827 1.99618513026716 0.0 97.0 2.0 0.0 
2.0 20.0 0.0 94.0 28.0 0.0 
24.0 28.0 0.0 29.0 28.0 0.0 
34.0 28.0 0.0 39.0 28.0 0.0 
54.0 28.0 0.0 59.0 28.0 0.0 
64.0 28.0 0.0 69.0 28.0 0.0 
98.0 12.0 0.0 7.0 28.0 0.0 
98.0 24.0 0.0 97.0 28.0 0.0 
20.0 2.0 0.0 26.0 2.0 0.0 
32.0 2.0 0.0 38.0 2.0 0.0 
44.0 2.0 0.0 50.0 2.0 0.0 
56.0 2.0 0.0 62.0 2.0 0.0 
68.0 2.0 0.0 74.0 2.0 0.0 
80.0 2.0 0.0 86.0 2.0 0.0 
1.99999981323511 8.99999805583899 0.0 2.0 14.0 0.0 
91.0 2.0 0.0 98.0 20.0 0.0 
18.0 28.0 0.0 48.0 28.0 0.0 
78.0 28.0 0.0 83.0 28.0 0.0 
87.0 28.0 0.0 91.0 28.0 0.0 
98.0 7.0 0.0 14.0 28.0 0.0 
20.0 28.0 0.0 25.0 28.0 0.0 
30.0 28.0 0.0 35.0 28.0 0.0 
40.0 28.0 0.0 44.0 28.0 0.0 
50.0 28.0 0.0 55.0 28.0 0.0 
60.0 28.0 0.0 65.0 28.0 0.0 
70.0 28.0 0.0 74.0 28.0 0.0 
80.0 28.0 0.0 98.0 13.0 0.0 
1.99999999996321 11.9999999994391 0.0 2.0 18.0 0.0 
98.0 17.0 0.0 98.0 18.0 0.0 
8.0 28.0 0.0 98.0 3.0 0.0 
98.0 4.0 0.0 98.0 25.0 0.0 
3.0 28.0 0.0 4.0 28.0 0.0 
1.9971839117747 3.993137435461 0.0 1.98608618048036 1.98526975763388 0.0 
14.0 2.0 0.0 98.0 26.0 0.0 
98.0 27.0 0.0 1.99983949066551 5.99923056007149 0.0 
2.0 22.0 0.0 2.0 25.0 0.0 
7.99999502590895 1.99999772908988 0.0 10.9999999997687 1.99999999988056 0.0 
15.0 2.0 0.0 18.0 2.0 0.0 
[...]
CELL_DATA 3000

SCALARS element_states float
LOOKUP_TABLE default
1 1 1 1 1 0 0 0 0 0 0 0 1 0 0 0 0 0 0 0 0 0 0 0 0 0 0 0 0 0 
0 0 0 0 0 0 0 0 0 0 0 0 0 0 1 0 0 0 0 0 0 0 0 1 1 1 1 1 1 1 
1 1 0 0 0 0 0 0 0 0 0 0 0 0 0 0 0 0 0 1 1 1 1 1 1 1 1 1 1 1 
1 1 1 1 1 1 1 1 1 1 1 1 1 1 1 1 1 1 1 1 1 1 1 1 1 1 1 1 1 1 
1 1 1 1 1 1 1 1 1 1 1 1 1 1 1 1 1 1 1 1 1 1 1 1 1 1 1 1 1 1 
1 1 1 1 1 1 1 1 1 1 1 1 1 1 1 1 1 1 1 1 1 1 1 1 1 1 1 1 1 1 
1 1 1 1 1 1 1 1 0 0 0 0 0 0 0 0 0 0 0 0 0 0 0 0 0 0 0 0 0 0 
0 0 0 1 1 1 1 1 1 1 1 1 1 1 1 1 1 1 1 1 1 1 1 1 1 1 1 1 1 1 
1 1 1 1 1 1 1 1 1 1 1 1 1 1 1 1 1 1 1 1 1 1 1 1 1 1 1 1 1 1 
1 1 1 1 1 1 1 0 0 0 0 0 0 0 0 0 0 0 0 0 0 0 0 0 0 0 0 0 0 0 
0 0 0 0 0 0 0 0 0 0 0 1 1 1 1 1 1 1 1 1 1 1 0 0 0 0 0 0 1 1 
1 1 1 0 1 1 1 1 1 1 0 1 1 1 1 0 0 1 0 1 0 0 1 1 1 1 1 1 1 1 
1 1 0 0 0 0 0 0 0 0 0 0 0 1 1 1 1 1 1 1 1 1 1 1 1 1 1 1 1 1 
1 1 1 1 1 1 1 0 0 0 0 0 0 0 0 0 0 1 1 1 1 1 0 1 1 1 0 1 0 0 
1 1 0 0 1 1 0 0 0 0 0 0 0 0 0 0 0 0 0 0 0 0 0 0 1 1 1 1 1 1 
1 1 1 1 1 1 1 1 1 1 1 1 1 1 1 1 1 1 1 1 1 1 1 1 1 1 1 1 1 1 
1 1 1 1 1 1 1 1 1 1 1 1 1 1 1 1 1 1 1 1 1 1 1 1 1 1 1 1 1 1 
1 1 1 1 1 1 1 1 1 1 1 1 1 1 1 1 1 1 1 0 0 0 0 0 0 1 1 1 1 1 
1 1 1 1 1 1 1 1 1 1 0 0 0 0 0 0 0 0 1 1 0 0 0 0 0 0 0 0 0 0 
1 1 1 0 0 1 1 0 0 0 0 0 1 1 0 0 0 0 0 0 0 0 1 1 1 1 1 1 1 1 
1 0 0 0 0 0 0 0 1 1 0 0 1 1 1 1 0 0 1 0 0 1 1 1 1 0 0 0 0 1 
0 0 0 0 0 0 0 1 1 1 1 1 1 1 1 1 1 1 1 1 1 1 1 1 1 0 1 1 1 1 
1 1 1 1 1 1 0 0 1 1 1 1 1 1 1 1 1 1 0 0 0 0 0 0 0 0 1 1 0 0 
0 0 0 0 1 1 1 1 1 0 1 1 0 1 1 0 0 1 1 1 1 1 1 1 1 1 0 0 1 1 
1 1 1 0 0 0 0 0 0 0 0 1 1 1 1 1 1 1 1 1 1 1 1 1 1 1 1 1 1 1 
1 1 1 1 1 1 1 1 1 1 1 1 1 1 1 1 1 1 1 1 1 1 1 1 1 0 0 0 0 0 
0 0 0 0 0 0 0 0 0 0 0 0 0 0 0 0 0 0 0 0 0 0 1 1 1 1 1 1 0 0 
0 1 0 0 0 1 0 0 0 0 0 1 1 1 1 1 1 1 1 1 1 1 1 1 1 1 0 0 0 0 
1 1 1 0 1 1 1 1 1 1 1 1 1 1 0 1 0 0 0 0 0 0 0 0 0 1 1 0 1 1 
1 1 1 1 0 0 0 0 1 1 1 1 0 0 0 1 1 1 1 1 0 0 0 0 1 1 1 1 1 1 
0 0 0 0 1 1 1 0 0 0 0 1 0 1 0 1 1 1 1 1 0 0 0 1 1 1 0 0 0 0 
1 1 0 0 1 0 0 1 1 1 1 1 1 1 1 0 0 1 1 0 0 0 0 0 0 0 0 0 0 0 
0 0 0 0 0 0 0 1 1 1 1 1 1 1 1 1 1 1 1 1 0 0 1 1 1 1 1 1 0 0 
0 1 1 1 1 0 0 0 1 1 0 0 1 1 1 0 0 0 1 0 0 0 0 1 0 0 0 0 0 0 
1 1 1 1 0 0 0 0 1 1 1 1 0 0 1 1 0 0 1 1 1 1 1 1 0 1 1 1 1 1 
1 1 1 1 1 1 0 1 0 0 0 0 0 1 1 0 0 0 0 1 1 1 1 1 1 1 1 1 1 1 
1 1 1 1 1 0 0 0 1 1 1 1 1 1 1 1 1 1 1 1 1 1 1 1 1 1 1 0 0 0 
0 0 0 0 0 1 1 1 0 0 0 0 1 0 1 0 0 0 0 1 1 1 0 1 0 0 0 0 0 0 
1 1 1 0 1 0 0 1 1 0 0 1 0 0 0 0 0 0 1 0 1 1 1 0 1 1 1 1 0 0 
0 1 1 1 1 1 1 1 1 1 0 1 1 1 0 0 0 0 1 1 1 0 1 0 0 0 0 0 1 0 
1 1 0 1 0 1 1 1 1 1 0 0 1 1 0 0 0 0 0 0 0 0 0 0 0 0 1 1 1 0 
0 1 1 0 0 1 0 1 1 0 0 0 0 0 0 1 1 1 0 0 1 1 0 0 0 1 1 1 1 1 
0 0 1 1 1 0 0 1 0 0 1 0 0 1 0 1 0 1 0 1 0 0 0 0 0 1 0 0 0 0 
0 0 1 0 1 1 1 1 0 0 0 1 1 1 1 0 0 0 0 1 1 1 0 0 0 0 1 0 0 0 
0 0 0 0 0 0 1 0 0 0 0 1 0 0 1 1 1 1 1 1 1 1 0 1 1 1 1 0 0 0 
1 0 0 1 1 1 0 0 0 0 0 0 0 1 0 0 0 0 0 0 0 0 0 1 1 1 1 1 0 0 
0 0 1 1 0 0 1 1 0 0 1 1 0 1 0 0 1 0 0 0 0 0 0 0 0 0 1 1 1 0 
0 0 0 1 0 0 1 0 0 0 0 1 1 0 0 0 0 0 0 0 0 0 0 0 0 0 1 1 1 1 
0 0 0 0 1 1 0 0 0 0 0 0 0 0 0 1 0 0 1 1 0 0 0 0 0 0 0 1 0 0 
0 0 1 0 0 0 1 1 0 0 1 0 0 0 0 0 0 0 1 0 0 0 0 0 0 1 0 0 0 0 
1 1 1 1 0 1 0 0 1 1 1 1 1 0 0 0 0 0 1 0 0 0 0 1 1 1 0 0 1 1 
0 0 0 0 0 1 0 1 0 0 0 0 1 0 0 0 0 0 0 0 0 1 0 0 0 0 1 0 0 0 
1 1 1 1 0 0 1 1 0 0 0 0 1 0 0 0 0 0 0 1 0 0 0 1 1 1 0 1 0 0 
0 0 0 0 0 0 0 0 0 1 1 1 1 1 1 1 1 0 1 1 0 0 0 0 0 0 0 0 0 0 
0 0 1 1 0 0 0 0 1 1 0 0 0 0 1 1 0 0 0 1 1 0 0 0 1 1 0 0 0 0 
0 0 0 0 0 0 0 1 1 0 0 1 1 0 1 0 0 0 0 1 0 1 1 1 0 0 1 1 1 0 
0 1 0 0 0 0 0 1 0 0 0 0 0 0 1 0 1 1 0 0 0 1 1 0 0 0 0 1 0 0 
0 0 1 0 0 0 1 1 0 0 0 0 1 0 0 0 0 0 1 0 0 0 0 0 0 1 1 0 0 0 
0 0 0 0 0 1 0 1 1 0 0 1 1 0 0 1 1 0 0 0 0 0 0 0 0 0 0 1 0 1 
0 0 1 0 0 0 1 1 1 1 0 0 0 1 0 0 0 0 1 1 1 0 0 0 1 0 0 0 0 0 
0 0 0 0 0 0 0 0 0 0 0 0 0 0 1 1 0 0 0 0 0 0 0 1 1 1 1 0 1 1 
1 0 0 1 0 0 0 0 0 0 0 1 1 1 1 0 0 1 0 0 0 0 0 0 0 0 0 0 1 1 
0 0 0 0 0 1 0 0 1 0 1 0 0 0 0 0 0 0 0 0 1 0 0 0 0 0 0 0 0 1 
1 0 0 0 1 1 1 0 0 0 0 1 1 0 0 0 0 0 0 0 0 0 0 0 0 0 0 0 0 1 
1 0 0 0 1 1 0 0 0 1 0 0 0 0 0 0 0 0 0 0 1 0 1 0 0 0 1 1 0 0 
0 1 1 0 0 0 0 0 0 0 1 0 0 0 0 0 0 0 0 0 0 0 0 0 1 0 0 0 0 0 
0 0 0 0 1 0 1 0 0 0 1 1 0 0 0 0 0 0 1 1 0 0 0 0 1 0 1 1 0 1 
0 0 0 0 0 1 0 1 0 0 0 1 0 0 0 0 0 1 0 0 0 0 0 0 1 0 0 0 0 0 
0 1 1 1 0 0 0 0 0 0 0 0 0 0 0 1 1 0 0 0 0 1 1 0 1 0 1 1 0 0 
0 0 0 0 0 0 0 0 0 0 0 0 0 1 0 0 0 0 0 0 1 0 0 0 0 0 0 0 0 0 
0 1 1 0 0 0 0 0 0 0 0 1 1 0 0 0 0 1 0 0 0 0 0 0 0 0 1 0 0 0 
0 0 1 1 0 0 0 1 0 0 0 1 0 0 0 0 0 0 0 0 0 0 1 0 0 0 0 0 0 0 
0 0 0 0 1 1 0 0 0 0 0 1 1 0 1 0 0 0 0 1 0 0 0 0 0 0 0 0 0 1 
0 1 0 0 0 1 0 0 0 1 1 0 0 0 0 0 1 0 0 0 1 0 0 0 0 0 0 0 0 0 
1 0 0 0 1 1 1 1 0 0 0 0 1 0 0 0 0 1 0 0 0 0 0 0 0 0 0 0 1 0 
0 0 1 1 0 0 0 1 1 0 0 0 0 0 0 0 0 0 0 0 0 0 0 0 0 0 0 1 1 0 
0 0 0 0 1 1 1 0 0 0 0 0 0 0 0 0 0 0 0 1 1 0 0 0 0 1 0 0 0 0 
0 0 0 0 1 0 0 0 1 0 0 0 0 0 0 1 1 0 1 0 0 0 0 0 0 0 0 0 0 0 
1 1 0 0 0 0 0 0 0 0 0 0 0 0 1 0 0 1 1 0 0 0 0 0 0 0 0 1 0 1 
0 1 0 0 1 0 0 0 0 0 0 1 1 0 0 1 0 0 0 0 0 1 0 1 1 0 1 0 0 1 
0 0 1 1 0 0 0 0 0 0 0 0 0 0 0 0 0 0 0 0 1 0 0 0 0 0 0 0 0 1 
1 0 1 0 0 0 1 0 0 0 1 0 0 0 0 0 0 1 1 0 0 0 0 1 1 0 0 1 0 0 
0 1 1 0 0 0 0 0 0 0 0 0 1 0 0 0 0 0 0 0 0 0 0 1 0 1 1 1 1 0 
0 0 0 0 0 0 0 0 0 1 1 0 0 0 0 0 0 0 0 0 0 0 0 0 1 1 1 1 1 1 
0 0 0 0 0 0 0 0 1 0 0 0 0 1 0 0 0 0 0 0 0 0 0 0 1 0 0 0 0 0 
1 1 1 0 0 0 0 0 0 0 0 1 1 1 0 0 0 0 0 0 0 1 1 0 0 0 0 1 0 0 
1 0 0 1 0 1 0 0 1 0 0 0 0 1 1 1 0 0 1 1 1 0 0 0 0 0 0 0 0 0 
0 0 0 0 0 0 0 0 0 0 0 0 1 0 0 0 1 1 1 1 0 0 1 1 0 1 1 0 0 0 
1 1 1 1 0 0 0 1 1 0 0 0 0 0 0 0 0 0 0 1 0 0 0 0 0 0 0 0 0 0 
0 0 0 1 1 1 0 0 0 0 0 0 0 1 0 0 1 1 0 0 0 1 1 0 0 0 0 0 0 0 
0 0 0 0 0 0 0 0 0 1 0 0 0 0 0 0 0 0 0 0 0 0 0 0 0 1 0 1 1 0 
0 1 1 1 1 1 0 0 0 0 0 0 0 0 1 0 0 1 0 0 0 0 0 0 0 0 0 0 0 0 
0 1 0 0 0 0 0 0 0 0 1 1 1 0 0 0 0 0 0 0 0 0 0 0 0 0 0 1 0 0 
0 0 0 0 1 0 0 0 0 1 1 0 0 0 0 0 0 0 0 0 0 0 0 0 0 0 0 0 1 0 
0 0 0 0 0 0 0 0 0 0 0 0 1 1 0 0 1 0 0 0 0 0 0 0 0 0 0 1 0 0 
0 0 0 0 0 0 0 0 1 0 0 1 1 0 0 0 0 0 1 1 1 1 1 1 0 0 0 0 0 0 
0 0 0 0 0 0 0 0 0 0 0 0 0 0 0 0 1 1 1 0 0 0 0 0 0 0 0 0 0 0 
0 0 0 1 0 1 0 0 0 0 0 0 0 0 1 1 0 0 0 0 0 0 1 0 0 0 0 0 1 1 
1 1 0 0 0 0 0 0 0 0 0 0 0 0 0 0 0 0 0 1 1 0 0 0 1 0 0 0 1 0 
1 0 0 0 0 0 0 1 0 1 0 0 1 0 1 1 1 1 0 1 0 0 0 0 1 1 0 1 1 1 


SCALARS sensitivity_number float
LOOKUP_TABLE default
0.13456042781691266 0.13778824372035273 0.14108211065020168 0.13781915464364533 0.1411188749624068 0.055015922653694836 
6.985819552118614e-07 1.7406949000895361e-07 1.7348576684947097e-07 0.02127906322585711 0.005707284931968712 1.856258628191766e-07 
0.06319900952310441 1.6043341549400217e-08 1.139368252673422e-08 2.2179209266013056e-08 1.6862805154029028e-08 0.06839541094358935 
0.008321592615367591 7.024175945567205e-07 7.318940579261638e-07 7.09152532291324e-07 7.031510684903797e-07 6.958051069033175e-07 
6.947517329058106e-07 6.85702675678879e-07 7.058236517123586e-07 1.0613892447329755e-07 4.4196501378453165e-07 0.009073196389214562 
4.1951846297935264e-07 3.7702772801389256e-07 3.978858051689531e-07 0.009936551473295132 4.084298629807801e-07 0.03884197398313955 
4.0693962859427015e-07 1.7621236551626146e-07 4.0465806819100255e-07 0.05312083669368811 4.509455426969769e-07 4.7437250617538105e-07 
4.267401317865114e-07 0.035292939553676815 0.05701649041980724 4.0521905843088264e-07 4.4971800992464495e-07 4.257372725045636e-07 
5.007538953483329e-07 0.009062318445533287 1.9865667940395978e-07 4.705724435419337e-07 0.05128505168855685 0.10583145522199021 
0.11262197900337678 0.07620751191026935 0.1332857365622163 0.13462687595110462 0.14113349723427798 0.13782675897562974 
0.14436649997351877 0.09027523546937016 0.05609034371490805 8.49607594583655e-07 8.705062999259759e-07 8.665530637707627e-07 
8.914994351765703e-07 8.790801623876337e-07 9.043550782709647e-07 9.181066585494792e-07 9.496227141570337e-07 9.331387926682877e-07 
9.863943497139462e-07 9.678039126937724e-07 1.0075876630243365e-06 1.0248617640854835e-06 1.0693402882926593e-06 1.0746429387011745e-06 
0.062391035405055466 0.07010225330830436 0.10421430237434476 0.12398530535179189 0.0921342235190364 0.21072140214347426 
0.34699570263851875 0.34813164863957474 0.13296638814689235 0.13293824169207274 0.1329322411795354 0.13291045391176726 
0.13288523182449247 0.1329229595991941 0.13286842724064019 0.13333535125432183 0.134650168198215 0.14088467858718154 
0.1373359075492942 0.14474344017707158 0.14806994733971843 0.1504981634724678 0.15202376362625822 0.15283877267261983 
0.15329268921218028 0.15319056250099763 0.15325260227894874 0.15328800028493378 0.15321155100952535 0.15317433573871192 
0.15310768761914292 0.15314033054213463 0.1530847240657245 0.1530805336304465 0.15317338007484113 0.15345375826568391 
0.15530785897899235 0.15409727954578376 0.1597285044396153 0.1572041674893103 0.1626032431734527 0.1654280133882261 
0.16993625891445588 0.16788671907384126 0.17435824935674435 0.1718659030727961 0.17844676186398567 0.18504609946226738 
0.2022093361150019 0.19375492816342432 0.20676255289968498 0.20688808375273013 0.20014774317480571 0.1867696916955007 
0.14066196152480953 0.16531828016372074 0.10376489174525154 0.11907577633955901 0.09100043427153254 0.08018366338499172 
0.07557267992906809 0.07466333400850934 0.09052867726306456 0.08263174452241684 0.09877918213784975 0.11067265871919456 
0.11360246727497414 0.11323060968856714 0.11211069971325222 0.11279077383446566 0.11147646654410956 0.11086846405057357 
0.10963529354044196 0.1102506018670406 0.10840441691447615 0.10901968810115813 0.10778928066071489 0.10717433720123005 
0.10594497201962152 0.1065595724479142 0.10471626001281091 0.10533053757987587 0.10410213179037323 0.10348814802951663 
0.10226887304078766 0.10287429371498816 0.10217952123781694 0.10208481509361862 0.10270544868974894 0.10323713624946083 
0.10430027097411163 0.10376874078276585 0.1053631091466677 0.10483173204985179 0.10589437251320616 0.10642556087934149 
0.10695878179937111 0.10749017970416855 0.10795820376440672 0.10897883236915752 0.10909579471934165 0.10698661788167332 
0.10832520143273794 0.11415044978645082 0.23479580001286876 0.19626825807142495 0.2312330929041074 0.10416703383870968 
0.15114390807909242 0.061615093725815515 0.020523451963197062 1.8894500255036583e-07 2.2383477180863904e-07 1.545219572901536e-07 
1.3938642394588206e-07 1.24403413037086e-07 9.962149459051377e-08 1.1176606419789967e-07 8.831407862692528e-08 7.767977985801426e-08 
6.783936840514659e-08 5.021344660991412e-08 5.870617971169817e-08 4.230753927104127e-08 3.5002868833531087e-08 2.232684197769561e-08 
2.8333694760893544e-08 1.6999166249550136e-08 8.413433498968866e-09 1.2359568072641306e-08 5.496860717479485e-09 3.215374537809273e-09 
1.894893593403161e-09 1.2468320807121095e-09 1.297987737052862e-09 0.38491902520198185 0.31756875594595185 0.35044327704772893 
0.3005620028184717 0.27995317874472536 0.23250416057636142 0.25741442238204293 0.20665889679984 0.1812972961719166 
0.15802169625335644 0.13841737833484247 0.12249324112055855 0.1010964853410897 0.1105875100448516 0.09333369990460043 
0.08722644638949353 0.08287535147632219 0.07893299253390697 0.08020974042744569 0.07855012619893713 0.07869876685239362 
0.07916397231232555 0.08092939566882712 0.07990243485253834 0.08222972601854148 0.0835936644434768 0.0848472639454131 
0.08594245810294918 0.08581390173271616 0.08523349898772437 0.08392941877630644 0.08276210405903604 0.08404454444281449 
0.08288236720273226 0.08587029686056467 0.08763353788311468 0.08927047528973911 0.09240710629981047 0.0908404147504372 
0.09398012710966777 0.09555882828218619 0.09714016342237569 0.10084065812669596 0.09887208847498875 0.10304848914191893 
0.10539829943897538 0.10774684866074076 0.11242422792561073 0.11009105803558605 0.11473926182793354 0.11703343654258883 
0.1193697125113612 0.12536152608690823 0.12196047399574793 0.13013610298286216 0.13627659426893993 0.14220972986131572 
0.1445832918391712 0.14566744310560373 0.1377694924860656 0.12494262319670349 0.10906981990653317 0.06872669597569912 
0.09189869019407323 0.04905836190477526 0.013093866721284354 1.3648976712780946e-07 1.1928875131408006e-07 1.1246879777990891e-07 
1.2458450634162838e-07 1.1930276443383178e-07 1.169397929288782e-07 1.1366229205852172e-07 1.1586244861133708e-07 1.1278616417065837e-07 
1.126185219205609e-07 1.1323581023761567e-07 1.1290576131393401e-07 1.1349907415055774e-07 1.1115222264284824e-07 1.0778200588272608e-07 
1.0262489226326815e-07 8.71719039698052e-08 9.56701468343744e-08 7.753251033590312e-08 6.731043137391814e-08 4.7558257048818903e-08 
5.7164537367177014e-08 3.881235311461156e-08 3.109639331176542e-08 1.8280626502615444e-08 2.4263945749200897e-08 8.854826037253412e-09 
1.3148363393216748e-08 5.699673047319206e-09 3.299311170278887e-09 1.2483310911643509e-09 1.907305666319195e-09 0.09543975936839817 
0.10332394067704997 0.08121130529383011 0.08790947167219021 0.0893343984623323 0.09527866049532888 0.10207297850151269 
0.1004904554834806 0.11725393687473999 0.13516174513444862 0.08171658967630101 0.00631057189399871 1.1264651278683594e-07 
1.1494279026305621e-07 1.0151702975255621e-07 4.54568647837303e-08 5.3226617318888176e-08 0.21983307580705067 0.13451840712930022 
0.1345269528903696 0.06461495014141035 0.10102847080643614 1.0941806830445919e-08 0.27504722724175784 0.2909407859281772 
0.14111849830570727 0.14438084681104565 0.13909835170470677 0.1422156201725653 4.702559177132207e-09 0.08891337106754699 
0.08413034095037256 0.10378646823242543 0.10550120503469781 1.1227020540847211e-07 1.1216994439341885e-07 0.13781356844220363 
0.050522222390858504 0.09599266467736838 8.633873089213686e-07 0.05112371526387007 0.13447615926371884 0.13433270106544845 
0.13614421233148277 0.14631902938293245 0.14471435415015177 0.07087789942473537 0.0715986640647292 0.07130476881947567 
0.18555896782794096 0.12207363224548456 0.04580406791145256 0.010272171159519386 1.375182129130365e-07 1.515079434685954e-07 
1.2520645029292904e-07 1.1319206830772798e-07 7.04914939741961e-08 6.156214870185892e-08 3.826025371339991e-08 2.013249603272559e-08 
1.524378246430061e-08 0.3138192202893765 0.30806502737373503 0.2590256017677914 0.24042919391825862 0.137664107651734 
0.15548362741367452 0.12361576793735712 0.11244386122535818 0.07977240620358744 0.08034537500335566 0.0853183279453297 
0.08680291297996369 0.08661163732414207 0.08735753824575686 0.09343433538806263 0.09436256066512201 0.09808521701447193 
0.09916240064000686 0.1138787328136263 0.11546592676212211 0.12983053020179247 0.13409209917260148 0.10960915843723833 
0.09610356565939474 0.031405670855482216 0.01864353316313891 1.288714267562164e-07 1.1976174146402699e-07 1.0142923092125945e-07 
7.856551630641684e-08 6.902656263464352e-08 4.1952943210885426e-08 3.431847018210281e-08 4.778618524940245e-09 0.14711529162954934 
0.07951351951570812 0.08378398710976313 0.11229134291884917 0.12434547766072626 1.0610444869204738e-07 0.08700221220984639 
0.0924212633847362 0.12253498613572389 0.051376009535584695 0.09714251485350615 1.3156536686944147e-07 8.005855235055812e-08 
0.12558720182046498 0.13653695937725976 5.033591944710021e-08 8.755542104192717e-07 0.07184469207448795 0.07674074120380182 
2.5598588689118518e-08 2.1408958121718198e-08 8.505611055260201e-07 8.747500817990469e-08 7.599955453762079e-09 1.2087188966322433e-08 
8.659799315860507e-07 8.876144264515586e-07 9.134779899875962e-07 9.001059466786338e-07 9.442269005516412e-07 9.281123105016345e-07 
9.621607616169692e-07 9.810522316547987e-07 1.0225453152581995e-06 1.0032359529718955e-06 1.0657818356791805e-06 1.0792303968820384e-06 
0.10140337473089342 0.13395345897855765 0.09411396116959392 0.2214308881791381 0.13452639061795366 0.134058657504412 
0.13382261407265297 0.13437346400698186 0.14736749399167823 0.1473344739285719 0.1473881847834665 0.14723835282817802 
0.1472787552186063 0.14721215043907698 0.14719431106361305 0.14716013497953687 0.14717837364955053 0.14711704902906353 
0.14713812833659384 0.14711860914605152 0.14719988940808376 0.14817237394646648 0.14749543001414486 0.15129685579768648 
0.14943759520349142 0.1534528052589518 0.15542915766464513 0.1574972992154609 0.15686086131941818 0.1570760331535517 
0.15741465442475383 0.15739715487342468 0.1595858317829969 0.16931526679446074 0.16403681704490067 0.17239989307773448 
0.17333995672830352 0.16670410478826855 0.1561160441791354 0.13071154429492166 0.1439129512838782 0.10264506488645837 
0.11614008342598407 0.09150508640925474 0.08044327361815105 0.0697045776618106 0.07170881848002009 0.0837695085873948 
0.07528167896230376 0.08708533428002435 0.07419925573723628 0.07385243262254798 0.07401987854182537 0.0728343132825245 
0.07311456460980391 0.07244826338715343 0.07210600981639083 0.07140210160558484 0.07175255168387709 0.07070016882176132 
0.07105096897402732 0.07034941619777106 0.06999877904298493 0.06929779609963001 0.06964823787052547 0.06859718773971218 
0.06894744941734406 0.06824701797718567 0.0678969247043971 0.06720016697470077 0.06754691290356497 0.06725576603123241 
0.0671355239097037 0.0676525666684131 0.06805586504317628 0.06886228290798696 0.0684591082052747 0.06966851344270492 
0.06926540181228617 0.07007154579392069 0.07047360192664327 0.07731672032598498 0.09329258597819437 0.08559807969956211 
0.11333520393408868 1.7026387477653343e-07 9.040877496555532e-08 3.164158351479108e-08 7.384580403466933e-09 1.725225035737234e-09 
2.855035792461922e-09 0.17610457426531312 0.1980046302317834 0.08121541591812649 0.07986545599800413 0.07946619278357646 
0.08238221818140043 0.08793797733839151 0.09110810337634571 0.09620560129399214 0.10721700546527413 0.10893065653512751 
0.11062850485850854 0.11997868829893865 0.1314514221864871 0.056288546203107324 1.2830946185034886e-07 1.1175374911336795e-07 
1.1101511000920117e-07 1.0921795926000766e-07 9.521004734301174e-08 5.945085562312e-08 2.749291863230492e-08 2.870568628342911e-09 
0.15008512158139936 0.16485642461856193 8.127717980750696e-08 4.840181501877506e-08 9.479119101733294e-07 8.892892807381534e-08 
9.395492958677328e-08 0.033787748930089574 0.033644468782932695 5.6256827030936336e-08 6.261158522763698e-08 5.5036499766163013e-08 
0.13781139790011196 0.22955332312961713 0.09189231375999425 1.0656513991548736e-06 1.16875050382895e-07 0.19160404647967727 
0.20319282341786157 4.738967912352194e-09 7.977243859968167e-09 0.03393113559721981 8.554665472652735e-07 4.512687913038855e-08 
0.08654494092436307 0.10086751066313283 1.0971512732036689e-07 9.521493574374883e-08 9.98220801208011e-08 7.296782812389144e-08 
6.452139767842344e-08 4.108773215099497e-08 0.00947954737347276 0.04271973698879366 0.11674521729391592 0.08190294248987903 
0.0911518511777075 0.10138357019412186 0.10129793062373574 0.09985277116291107 0.10148951366218882 0.11549358972053325 
0.09938384178060661 0.043731238635941326 1.3428710625335793e-07 1.0580989846913651e-07 9.665411267722817e-07 9.899519397763786e-07 
5.2190636720770514e-08 5.971296424555835e-08 0.08988759802632997 0.0956641090777169 1.1868480221711244e-08 1.6399254401926644e-08 
0.2210657742036621 0.22813618553703574 0.1443603989435619 0.1376175825461429 7.906315173734302e-09 0.05052258203743696 
0.09597589600435376 0.04327904234101773 1.0958990087218755e-06 0.13683103352064982 0.13756477539269263 0.13397337224672512 
0.13729381236001903 0.033355769198039835 0.033500620032742526 0.0330755476997589 0.03322976137492795 0.05826608712314545 
1.3733790297160312e-07 1.4444289589956766e-07 1.270714359927052e-07 7.611111479539007e-08 6.767345118448544e-08 2.671450015957222e-08 
2.136702978483268e-08 0.2131231246690535 0.08091614059495486 0.08119353914005051 0.08567587224655716 0.08831952473396627 
0.09538533174610764 0.09891585798527248 0.1021314171602346 0.10171748752119159 0.10011122844079404 0.10263284817634147 
0.10240042393774404 0.104028583501316 0.1096548513173202 0.10587838488826067 0.1020198043088069 0.0668115093351605 
0.04831576332258585 1.420238377011725e-07 0.13650894204222877 0.13572092634001692 0.08081874668735602 0.08096850628542873 