# vtk DataFile Version 3.0
Results from optimization
ASCII
DATASET UNSTRUCTURED_GRID

POINTS 1372 float
-2986.552986266 23697.1412862 12000.0 -2986.552986266 23697.1412862 -14000.0 
-21970.20888407 -9183.095417735 -14000.0 -21970.20888407 -9183.095417735 12000.0 
2986.552986266 23697.1412862 -14000.0 2986.552986266 23697.1412862 12000.0 
-18937.89835865 -14435.19989037 12000.0 -18937.89835865 -14435.19989037 -14000.0 
18937.89835865 -14435.19989037 12000.0 21970.20888407 -9183.095417735 12000.0 
3250.0 0.0 12000.0 18937.89835865 -14435.19989037 -14000.0 
21970.20888407 -9183.095417735 -14000.0 3250.0 0.0 88000.0 
-2986.552986266 23697.1412862 9111.111111111 -2986.552986266 23697.1412862 6222.222222222 
-2986.552986266 23697.1412862 3333.333333333 -2986.552986266 23697.1412862 444.4444444444 
-2986.552986266 23697.1412862 -2444.444444444 -2986.552986266 23697.1412862 -5333.333333333 
-2986.552986266 23697.1412862 -8222.222222222 -2986.552986266 23697.1412862 -11111.11111111 
-7079.224698088 16608.51645226 -14000.0 -10341.28160264 10958.54029693 -14000.0 
-14503.24385052 3749.902266434 -14000.0 -17815.36160232 -1986.780712697 -14000.0 
-20221.47587024 -6154.239662206 -14000.0 -21970.20888407 -9183.095417735 9111.111111111 
-21970.20888407 -9183.095417735 6222.222222222 -21970.20888407 -9183.095417735 3333.333333333 
-21970.20888407 -9183.095417735 444.4444444445 -21970.20888407 -9183.095417735 -2444.444444444 
-21970.20888407 -9183.095417735 -5333.333333333 -21970.20888407 -9183.095417735 -8222.222222222 
-21970.20888407 -9183.095417735 -11111.11111111 -7079.224698088 16608.51645226 12000.0 
-10341.28160264 10958.54029693 12000.0 -14503.24385052 3749.902266434 12000.0 
-17815.36160232 -1986.780712697 12000.0 -20221.47587024 -6154.239662206 12000.0 
-0.0 22896.89645053 -14000.0 2986.552986266 23697.1412862 9111.111111111 
2986.552986266 23697.1412862 6222.222222222 2986.552986266 23697.1412862 3333.333333333 
2986.552986266 23697.1412862 444.4444444444 2986.552986266 23697.1412862 -2444.444444444 
2986.552986266 23697.1412862 -5333.333333333 2986.552986266 23697.1412862 -8222.222222222 
2986.552986266 23697.1412862 -11111.11111111 -0.0 22896.89645053 12000.0 
-18937.89835865 -14435.19989037 9111.111111111 -18937.89835865 -14435.19989037 6222.222222222 
-18937.89835865 -14435.19989037 3333.333333333 -18937.89835865 -14435.19989037 444.4444444445 
-18937.89835865 -14435.19989037 -2444.444444444 -18937.89835865 -14435.19989037 -5333.333333333 
-18937.89835865 -14435.19989037 -8222.222222222 -18937.89835865 -14435.19989037 -11111.11111111 
-19750.35733254 -11402.86752874 -14000.0 -19750.35733254 -11402.86752874 12000.0 
-10695.50524464 -14435.19989037 12000.0 -4143.730597678 -14435.19989037 12000.0 
4143.730597678 -14435.19989037 12000.0 10695.50524464 -14435.19989037 12000.0 
15464.91422587 -14435.19989037 12000.0 19750.35733254 -11402.86752874 12000.0 
17815.36160232 -1986.7807127 12000.0 14503.24385051 3749.902266431 12000.0 
10341.28160264 10958.54029693 12000.0 7079.224698081 16608.51645226 12000.0 
4709.128078972 20713.5918006 12000.0 2814.582562299 1625.0 12000.0 
1625.0 2814.582562299 12000.0 -0.0 3250.0 12000.0 
-1625.0 2814.582562299 12000.0 -2814.582562299 1625.0 12000.0 
-3250.0 -0.0 12000.0 -2814.582562299 -1625.0 12000.0 
-1625.0 -2814.582562299 12000.0 0.0 -3250.0 12000.0 
1625.0 -2814.582562299 12000.0 2814.582562299 -1625.0 12000.0 
-10695.50524464 -14435.19989037 -14000.0 -4143.730597678 -14435.19989037 -14000.0 
4143.730597678 -14435.19989037 -14000.0 10695.50524464 -14435.19989037 -14000.0 
15464.91422587 -14435.19989037 -14000.0 19750.35733254 -11402.86752874 -14000.0 
17815.36160232 -1986.7807127 -14000.0 14503.24385051 3749.902266431 -14000.0 
10341.28160264 10958.54029693 -14000.0 7079.224698081 16608.51645226 -14000.0 
4709.128078972 20713.5918006 -14000.0 21970.20888407 -9183.095417735 9111.111111111 
21970.20888407 -9183.095417735 6222.222222222 21970.20888407 -9183.095417735 3333.333333333 
21970.20888407 -9183.095417735 444.4444444445 21970.20888407 -9183.095417735 -2444.444444444 
21970.20888407 -9183.095417735 -5333.333333333 21970.20888407 -9183.095417735 -8222.222222222 
21970.20888407 -9183.095417735 -11111.11111111 18937.89835865 -14435.19989037 9111.111111111 
18937.89835865 -14435.19989037 6222.222222222 18937.89835865 -14435.19989037 3333.333333333 
18937.89835865 -14435.19989037 444.4444444445 18937.89835865 -14435.19989037 -2444.444444444 
18937.89835865 -14435.19989037 -5333.333333333 18937.89835865 -14435.19989037 -8222.222222222 
18937.89835865 -14435.19989037 -11111.11111111 3250.0 0.0 13688.88888889 
3250.0 0.0 15377.77777778 3250.0 0.0 17066.66666667 
3250.0 0.0 18755.55555556 3250.0 0.0 20444.44444444 
3250.0 0.0 22133.33333333 3250.0 0.0 23822.22222222 
3250.0 0.0 25511.11111111 3250.0 0.0 27200.0 
3250.0 0.0 28888.88888889 3250.0 0.0 30577.77777778 
3250.0 0.0 32266.66666667 3250.0 0.0 33955.55555556 
3250.0 0.0 35644.44444444 3250.0 0.0 37333.33333333 
3250.0 0.0 39022.22222222 3250.0 0.0 40711.11111111 
3250.0 0.0 42400.0 3250.0 0.0 44088.88888889 
3250.0 0.0 45777.77777778 3250.0 0.0 47466.66666667 
3250.0 0.0 49155.55555556 3250.0 0.0 50844.44444444 
3250.0 0.0 52533.33333333 3250.0 0.0 54222.22222222 
3250.0 0.0 55911.11111111 3250.0 0.0 57600.0 
3250.0 0.0 59288.88888889 3250.0 0.0 60977.77777778 
3250.0 0.0 62666.66666667 3250.0 0.0 64355.55555556 
3250.0 0.0 66044.44444444 3250.0 0.0 67733.33333333 
3250.0 0.0 69422.22222222 3250.0 0.0 71111.11111111 
3250.0 0.0 72800.0 3250.0 0.0 74488.88888889 
3250.0 0.0 76177.77777778 3250.0 0.0 77866.66666667 
3250.0 0.0 79555.55555556 3250.0 0.0 81244.44444444 
3250.0 0.0 82933.33333333 3250.0 0.0 84622.22222222 
3250.0 0.0 86311.11111111 2814.582562299 1625.0 88000.0 
1625.0 2814.582562299 88000.0 -0.0 3250.0 88000.0 
-1625.0 2814.582562299 88000.0 -2814.582562299 1625.0 88000.0 
-3250.0 -0.0 88000.0 -2814.582562299 -1625.0 88000.0 
-1625.0 -2814.582562299 88000.0 0.0 -3250.0 88000.0 
1625.0 -2814.582562299 88000.0 2814.582562299 -1625.0 88000.0 
-10142.45666281 11302.91079752 -1000.0 -15763.43342525 1567.217764984 -1000.0 
-18572.6343652 -3298.398866067 -7031.366471477 -18572.6343652 -3298.398866067 5031.366471477 
-19086.66992651 -4188.723207231 -1000.0 -6521.28939829 17574.87640008 4475.885768143 
-6521.28939829 17574.87640008 -6475.885768143 -6015.657229302 18450.64582463 -1000.0 
-12628.61978249 6996.804939946 4535.562989111 -12628.61978249 6996.804939946 -6535.562989111 
-20027.04385368 -5817.477830782 -9449.234824753 -20027.04385368 -5817.477830782 7449.234824753 
-15506.58791462 2012.081558935 4737.713816969 -15506.58791462 2012.081558935 -6737.713816969 
-4980.493935869 20243.5783503 8091.035652273 -4980.493935869 20243.5783503 -10091.03565227 
-20248.43898006 -6200.940542055 1914.713051527 -20248.43898006 -6200.940542055 -3914.713051527 
-4699.01536506 20731.10731127 -3888.888888889 -4699.01536506 20731.10731127 1888.888888889 
-9437.696450928 12523.57570584 -6455.056883356 -9437.696450928 12523.57570584 4455.056883356 
-12824.80486734 6657.00674394 -1000.0 -20656.95956776 -6908.509921433 4905.800385689 
-20656.92746807 -6908.454323858 -1000.0 -20656.95956776 -6908.509921433 -6905.800385689 
-17421.54830667 -1304.684785125 1251.299601802 -17421.54830667 -1304.684785125 -3251.299601802 
-16935.07639864 -462.1014823177 -10020.30191164 -16935.07639864 -462.1014823177 8020.30191164 
-4434.78093435 21188.76892681 -6802.273172972 -4434.78093435 21188.76892681 4802.273172972 
-4291.547481621 21436.85337667 -1000.0 -7825.315569875 15316.2656551 -2961.941218392 
-7795.378837839 15368.11693394 1041.277318621 -19026.85917104 -4085.129262631 9815.669712686 
-19026.85917104 -4085.129262631 -11815.66971269 -20733.46897261 -7041.026405883 -11678.14943343 
-20733.46897261 -7041.026405883 9678.14943343 -8269.465791651 14546.98472719 8168.354265504 
-8269.465791651 14546.98472719 -10168.3542655 -14362.16405446 3994.256521142 1647.775763941 
-14362.16405446 3994.256521142 -3647.775763941 -18825.4958644 -3736.362237908 -3816.069333657 
-18825.4958644 -3736.362237908 1816.069333657 -11532.00167254 8896.178971125 -10163.15991236 
-11532.00167254 8896.178971125 8163.159912362 -14221.10592376 4238.573250825 -9491.347726016 
-14221.10592376 4238.573250825 7491.347726016 -21095.06137352 -7667.314819266 7528.55018722 
-21095.06137352 -7667.314819266 -9528.55018722 0.0 22896.89645053 -12052.28306421 
-0.0 22896.89645053 10052.28306421 -0.0 22896.89645053 -9558.795481139 
0.0 22896.89645053 -6777.777777778 0.0 22896.89645053 4777.777777778 
0.0 22896.89645053 7558.795481139 0.0 22896.89645053 -3888.888888889 
-0.0 22896.89645053 -1000.0 0.0 22896.89645053 1888.888888889 
-19750.35733254 -11402.86752874 -12047.24893153 -19750.35733254 -11402.86752874 10047.24893153 
-19750.35733254 -11402.86752874 -9559.80783396 -19750.35733254 -11402.86752874 -6777.777777778 
-19750.35733254 -11402.86752874 4777.777777778 -19750.35733254 -11402.86752874 7559.80783396 
-19750.35733254 -11402.86752874 -3888.888888889 -19750.35733254 -11402.86752874 -1000.0 
-19750.35733254 -11402.86752874 1888.888888889 7624.871227534 -7374.764412678 12000.0 
-10192.93493028 -2905.312495828 12000.0 1526.312938763 -8385.475971415 12000.0 
8853.956029455 -1561.024214009 12000.0 -5962.413970326 -6224.425320007 12000.0 
-9495.730300247 2727.915718432 12000.0 -2608.247058515 10295.40384386 12000.0 
2581.622365694 8895.471972661 12000.0 14031.5181982 -8282.652093956 12000.0 
-14179.11119738 -8010.228144484 12000.0 -176.1988634384 16346.68998025 12000.0 
-1884.991628779 -7034.884530446 12000.0 7390.584429382 1957.93556623 12000.0 
-6033.014509255 4945.505526835 12000.0 5084.91536678 -5043.230897637 12000.0 
-6903.754800324 -1878.876158949 12000.0 5059.767681972 5108.242853572 12000.0 
-1983.526151662 6530.382981463 12000.0 3576.532350386 13013.21348758 12000.0 
-4543.618289021 -4074.897933069 12000.0 5923.59180325 -1818.809668516 12000.0 
[...]
CELL_DATA 4472

SCALARS element_states float
LOOKUP_TABLE default
1 1 1 1 1 1 1 1 1 1 1 1 0 1 1 1 1 1 1 1 1 1 1 1 1 1 1 0 0 0 
1 1 0 1 1 1 1 1 1 1 1 1 1 1 1 1 1 0 1 1 1 1 1 1 1 1 1 1 1 1 
1 1 1 1 1 1 1 1 1 1 1 1 1 1 1 1 1 1 1 1 1 1 1 1 1 1 1 1 1 1 
1 1 1 1 1 1 1 1 1 0 1 1 1 1 1 0 1 1 1 1 1 0 1 1 1 1 1 1 1 1 
1 1 1 0 1 1 1 1 1 1 1 1 1 1 1 1 1 0 1 1 1 1 0 1 1 1 1 1 1 1 
0 1 1 1 1 1 1 1 1 1 1 0 1 1 1 1 1 1 1 0 1 1 1 1 1 1 1 1 1 1 
1 1 1 1 1 1 1 1 1 1 1 1 1 1 1 1 1 1 1 1 1 1 1 1 1 1 1 1 1 1 
1 0 1 1 1 1 1 1 1 1 1 1 0 0 1 1 1 1 1 1 0 1 1 1 1 1 1 1 1 1 
1 1 1 1 1 1 1 1 1 1 1 1 1 1 1 0 1 1 1 1 1 1 1 1 0 1 0 1 1 1 
1 1 1 1 1 1 1 1 1 1 1 0 1 1 1 0 1 1 1 1 1 1 1 1 1 1 1 1 0 1 
1 1 1 0 1 1 1 1 0 0 1 1 1 0 1 1 1 1 1 1 1 1 1 1 1 1 1 1 1 1 
1 1 1 1 1 1 1 1 1 1 1 1 1 1 1 1 1 1 1 1 1 1 1 1 1 1 1 1 1 1 
1 1 0 1 1 1 1 1 1 1 1 1 1 1 1 1 1 1 1 1 1 1 1 1 1 1 1 1 1 1 
0 0 0 1 1 0 1 0 1 1 1 0 1 1 1 1 1 1 1 0 1 1 1 1 1 1 1 1 1 1 
0 0 1 1 0 1 1 1 1 1 1 1 1 1 1 1 0 1 1 1 0 1 1 1 1 1 1 1 0 0 
1 1 1 1 1 1 1 1 0 1 1 1 1 1 0 1 1 1 1 1 1 0 1 1 1 0 1 1 1 1 
1 1 1 1 1 1 1 1 1 1 1 0 1 0 1 1 1 1 0 1 1 1 0 0 1 1 1 1 1 1 
1 1 1 1 1 1 1 1 1 1 0 1 0 1 1 1 1 1 1 0 1 1 1 1 0 1 1 1 1 1 
0 1 1 0 1 1 1 0 1 1 1 0 1 1 1 1 1 1 1 0 1 0 1 1 1 1 1 1 1 0 
1 1 1 1 0 1 1 1 1 1 1 1 0 1 1 1 1 1 1 1 1 1 1 0 1 1 1 0 0 0 
1 0 1 1 1 1 0 1 1 1 1 1 1 1 1 1 1 1 1 1 1 1 1 1 1 0 1 1 0 1 
1 1 0 1 1 1 1 1 1 1 1 1 1 1 1 0 1 1 1 0 0 0 1 0 1 1 1 1 0 0 
0 1 1 1 0 0 0 1 0 1 1 0 1 0 1 0 0 1 0 1 1 1 1 1 0 1 1 0 1 1 
1 1 1 1 1 1 1 0 1 1 0 0 1 1 0 1 1 1 1 0 1 0 1 0 1 1 1 1 1 1 
1 0 1 1 1 1 1 1 1 0 0 1 1 0 0 0 1 0 1 1 0 1 1 1 1 1 0 1 0 1 
1 0 1 1 0 1 0 1 1 1 0 0 1 1 1 1 0 1 1 0 1 0 1 1 1 1 1 0 0 1 
1 1 0 1 0 0 1 0 1 1 1 1 1 1 1 0 1 1 0 1 0 1 0 0 0 0 1 1 1 1 
1 1 1 1 1 1 1 1 1 1 1 1 1 0 1 1 0 0 1 1 1 1 1 1 1 1 0 1 1 1 
0 1 1 1 1 1 0 0 1 1 1 1 1 1 1 1 1 1 1 0 1 1 1 1 1 0 0 1 1 1 
1 1 0 1 1 0 0 1 1 1 1 1 1 1 1 1 1 1 0 1 0 1 1 1 1 0 0 0 1 0 
0 1 1 0 1 1 1 0 0 0 0 1 1 1 1 1 0 0 0 0 1 1 1 0 1 1 1 0 0 1 
1 1 1 1 1 1 0 1 1 1 1 0 1 0 0 1 1 0 1 1 1 1 1 1 1 0 1 1 1 0 
0 1 1 0 1 0 1 1 1 1 1 1 1 1 1 1 1 1 1 1 1 0 0 0 0 1 0 0 1 0 
0 1 1 0 1 0 1 1 1 1 1 1 0 1 0 0 0 0 1 0 0 1 1 1 0 1 1 1 1 1 
0 1 0 0 1 1 0 1 0 1 0 0 1 1 1 0 0 1 0 0 0 1 0 1 0 1 1 1 0 1 
1 0 1 1 1 1 1 1 1 1 1 1 1 0 1 0 1 1 0 1 1 0 1 1 0 1 1 0 0 0 
1 1 0 1 1 0 0 1 1 1 0 0 1 0 1 1 0 0 0 0 1 1 1 1 1 1 1 1 1 0 
1 1 1 0 1 0 0 1 0 1 1 0 1 1 0 1 0 1 1 1 1 0 0 1 0 1 1 1 1 0 
0 1 1 1 1 1 1 1 1 0 1 1 1 1 0 1 1 0 1 0 0 0 1 1 0 1 0 1 1 1 
0 0 1 1 1 1 0 0 1 1 1 1 1 1 1 1 0 1 1 1 1 0 0 0 1 1 1 1 1 0 
1 1 1 1 0 0 1 1 1 0 1 1 1 0 0 1 0 1 1 0 1 0 1 0 0 0 1 1 1 1 
1 0 1 1 1 1 1 1 1 1 1 0 0 1 0 1 0 0 1 0 0 0 0 1 0 1 1 0 1 1 
1 0 1 1 1 1 1 0 1 1 0 0 1 1 1 1 1 1 1 1 1 1 0 1 0 1 1 1 1 1 
1 1 1 0 0 0 1 0 0 0 1 1 1 1 1 0 1 1 1 1 1 0 1 1 0 0 1 1 1 1 
0 1 0 0 0 1 1 0 0 1 0 0 0 1 1 1 0 0 0 0 0 1 1 1 0 0 0 0 0 0 
1 1 1 1 1 0 0 0 0 1 1 0 1 0 1 1 1 1 0 1 1 1 1 0 0 0 0 1 1 0 
0 0 1 1 1 1 0 0 1 0 1 1 0 1 1 1 1 1 1 0 1 1 0 1 0 1 1 1 1 1 
1 1 1 1 1 0 1 0 1 1 0 0 0 1 1 0 1 0 0 1 1 0 1 1 0 1 1 0 0 1 
0 0 0 0 1 1 1 0 0 0 0 1 0 1 0 1 0 0 0 1 1 1 0 1 1 1 1 1 1 0 
0 1 1 0 0 0 1 1 0 1 1 1 1 1 0 0 0 0 1 1 1 0 0 1 0 1 0 1 1 0 
1 1 0 0 0 0 0 0 1 1 1 1 0 0 0 1 1 1 0 0 1 0 1 1 0 1 1 1 1 0 
0 1 1 1 1 0 1 1 1 0 1 0 1 0 1 0 1 0 1 1 1 1 0 0 0 1 1 1 1 1 
1 0 0 1 1 1 0 1 1 0 1 0 1 1 1 1 1 1 1 1 1 0 0 1 0 1 1 1 1 0 
1 1 1 1 0 0 1 0 0 1 1 1 0 1 0 1 1 1 0 1 1 1 1 1 1 1 1 0 1 0 
1 0 1 1 0 0 1 1 1 1 1 1 1 1 1 0 1 1 1 0 1 0 1 0 1 0 1 1 1 0 
1 1 0 1 1 0 1 1 0 0 1 0 1 0 0 1 1 1 1 0 1 1 1 1 1 1 1 0 0 0 
1 1 0 0 1 1 1 1 0 0 1 0 1 1 1 0 1 1 1 1 1 1 1 1 1 1 1 1 1 1 
0 1 1 0 1 1 0 1 1 0 1 1 1 1 0 0 1 1 1 0 1 0 1 1 0 1 1 1 1 1 
1 1 0 1 1 1 1 1 1 1 1 1 1 1 1 1 1 1 1 1 1 1 1 0 0 1 1 0 0 0 
1 1 1 0 1 0 1 1 0 0 1 1 1 0 1 0 1 0 0 1 1 1 1 0 0 1 1 1 1 0 
1 1 0 1 0 0 0 1 1 0 0 1 1 0 0 1 1 1 1 1 1 1 0 1 1 0 0 1 0 1 
1 1 0 0 0 1 0 0 1 1 0 1 1 1 0 0 0 0 0 1 0 0 1 1 1 1 0 1 1 1 
1 1 1 0 0 1 1 1 0 1 1 1 1 0 1 1 1 0 1 1 1 1 0 1 1 1 1 0 0 1 
0 0 1 1 1 1 1 0 1 0 0 1 0 1 1 1 1 1 1 1 1 0 0 0 1 0 0 0 1 1 
1 0 1 1 1 1 1 0 1 1 1 1 1 0 0 1 0 0 1 0 1 1 1 1 1 1 0 1 1 1 
0 0 1 1 0 0 1 1 0 1 0 0 0 1 1 1 0 0 1 1 1 1 1 1 1 1 0 1 0 1 
1 0 1 1 1 1 1 1 0 0 1 0 1 1 1 1 0 0 0 1 0 1 1 1 1 1 1 1 1 1 
1 1 0 1 0 1 0 0 1 0 1 1 0 0 1 1 1 1 1 0 0 1 1 1 0 1 0 1 1 1 
1 0 1 1 0 0 0 1 0 1 0 1 1 0 1 1 0 0 0 1 1 0 0 1 0 1 0 1 1 1 
1 1 1 1 1 1 1 1 1 1 1 0 1 1 1 1 1 1 1 0 1 1 1 1 0 1 1 0 1 0 
1 0 1 0 1 1 1 1 1 1 1 1 1 1 0 1 1 0 0 0 0 0 1 0 1 0 0 0 1 1 
1 0 0 1 0 0 1 1 1 0 1 1 1 1 1 1 1 0 0 0 1 1 1 1 1 1 1 1 0 1 
1 1 0 0 1 1 1 1 0 1 1 1 1 1 1 1 0 0 1 1 1 1 1 0 1 0 0 1 1 1 
1 1 1 0 0 0 1 1 0 0 1 1 1 1 1 1 1 1 1 1 1 1 1 1 1 0 0 1 0 1 
1 0 1 1 1 1 1 1 1 1 0 1 1 1 1 1 1 1 1 1 0 1 1 1 1 1 1 1 1 1 
1 1 0 1 1 1 0 1 1 1 1 1 0 1 1 1 1 1 1 1 1 1 0 1 1 1 1 1 0 1 
1 1 0 0 0 1 0 1 1 1 1 1 0 1 1 0 0 1 1 0 1 1 1 1 0 0 1 0 1 0 
1 1 1 1 0 1 0 1 0 1 1 0 0 1 1 1 1 1 1 1 1 1 1 1 1 0 1 0 1 0 
1 1 0 1 0 1 1 1 1 1 1 1 1 1 1 1 1 1 0 1 1 0 1 1 1 1 0 1 1 1 
1 0 1 1 1 0 1 1 0 1 0 1 0 1 0 1 1 0 1 1 1 0 1 0 1 1 1 1 1 1 
1 1 1 1 1 1 1 1 1 1 0 1 1 1 1 1 0 0 1 1 1 1 1 1 0 1 1 1 1 0 
0 1 1 1 1 0 0 0 1 1 1 0 0 1 1 0 1 1 1 1 0 0 1 1 1 1 1 0 1 0 
1 1 0 1 1 1 1 1 0 1 1 0 0 1 1 0 1 1 0 1 1 1 0 0 1 1 1 0 1 0 
1 0 1 1 1 1 1 1 1 1 1 1 1 1 1 1 1 1 1 0 1 0 1 1 1 0 0 1 1 0 
1 1 0 1 0 1 1 1 1 1 0 0 0 1 1 1 0 1 0 0 0 1 1 1 1 1 1 1 1 0 
1 1 0 1 1 1 0 0 1 1 1 1 0 1 1 1 1 1 0 1 1 1 1 1 0 0 0 1 0 0 
1 1 0 1 1 1 0 0 1 1 1 1 1 1 0 0 1 0 0 1 0 0 1 1 1 1 1 0 1 1 
0 1 1 1 0 1 1 1 1 1 1 1 0 1 1 1 1 0 1 1 0 1 0 1 1 1 1 0 1 0 
1 1 1 1 1 1 0 0 1 1 1 0 1 1 1 0 1 1 1 0 0 1 0 1 1 0 1 0 1 0 
1 0 0 1 0 0 0 1 0 1 1 1 1 1 1 1 1 1 1 1 1 0 1 0 1 1 1 1 0 0 
1 1 1 0 1 1 0 1 1 1 1 1 1 1 1 1 1 1 1 0 0 1 1 1 0 1 0 1 0 1 
1 1 1 1 1 1 1 1 1 1 0 0 0 0 1 0 1 1 1 0 1 0 1 1 1 1 1 0 1 1 
1 1 0 0 1 1 0 1 1 1 0 1 1 1 1 1 1 1 1 1 0 1 0 1 1 1 0 0 1 1 
0 1 1 0 1 1 1 1 1 1 1 1 1 0 1 0 0 1 1 0 0 1 1 1 0 0 1 1 1 0 
1 1 1 1 1 1 1 0 0 1 1 1 1 0 1 1 1 0 1 1 1 1 1 0 0 1 1 1 1 0 
0 1 1 1 0 1 1 1 1 0 0 1 0 0 0 0 1 1 1 1 1 1 1 0 1 1 1 1 1 1 
1 1 1 1 0 1 1 1 0 0 0 1 1 1 1 1 1 1 1 1 1 1 0 0 1 1 1 1 1 1 
1 1 0 1 1 1 1 0 1 1 1 1 0 1 0 0 1 1 1 1 1 1 1 1 1 0 1 1 1 1 
1 1 0 0 1 1 0 1 1 1 0 1 1 1 1 1 1 1 1 1 1 1 1 0 1 1 1 1 0 1 
1 1 1 0 0 1 1 0 0 1 0 0 1 1 0 1 0 1 1 1 1 1 1 0 1 1 1 1 1 1 
1 1 1 1 1 1 1 1 1 1 1 1 1 0 1 0 0 1 0 0 1 0 1 0 1 1 0 1 1 1 
1 0 1 1 1 1 1 1 1 1 1 1 1 1 1 1 0 1 0 0 1 1 1 1 1 1 0 1 1 1 
1 0 1 1 1 1 1 1 1 1 1 1 0 1 1 1 1 0 1 1 0 1 0 1 1 1 0 0 1 1 
1 0 1 1 1 0 1 1 1 1 0 0 1 0 0 1 1 1 1 1 1 1 1 1 0 1 1 1 1 0 
1 1 1 1 1 1 1 1 1 1 1 1 1 1 1 1 1 1 1 1 1 0 1 0 1 1 1 1 1 1 
1 1 1 0 0 0 1 1 0 1 1 1 1 0 1 1 1 0 1 1 0 1 1 0 1 1 1 1 1 1 
1 0 1 1 1 1 0 1 1 1 0 1 0 1 1 0 1 1 1 1 1 1 0 1 1 1 1 0 0 1 
1 1 1 1 0 1 1 1 1 0 1 1 1 1 1 0 0 1 0 1 1 1 0 1 1 0 1 1 0 0 
1 1 0 1 1 0 1 1 1 0 1 1 1 0 1 1 1 1 0 1 1 1 1 1 1 1 1 1 0 1 
1 1 0 1 1 1 1 1 1 1 1 1 1 0 1 1 0 0 1 1 1 1 0 1 1 1 1 1 1 0 
1 0 0 1 1 1 0 1 1 0 1 1 0 1 0 1 1 1 1 1 0 1 1 1 0 0 0 0 1 1 
1 1 1 0 1 0 0 1 1 0 1 1 0 1 1 1 0 1 0 1 1 1 1 1 1 1 1 1 0 1 
0 0 1 1 0 1 1 1 1 0 0 1 0 0 0 1 1 1 0 1 1 1 0 1 1 1 1 1 1 1 
1 1 1 0 0 0 1 0 1 1 1 1 1 0 1 1 1 1 0 1 1 0 0 1 1 1 1 0 0 0 
1 0 1 1 1 1 0 1 1 1 1 1 1 0 1 1 0 0 0 1 0 1 1 0 1 1 0 1 1 1 
1 1 0 1 1 0 1 1 1 1 0 0 0 1 1 0 1 1 0 1 1 1 1 1 1 0 0 1 1 0 
1 1 0 1 1 1 0 1 1 1 1 0 0 0 0 1 1 1 1 0 1 0 1 0 0 1 1 1 1 1 
1 1 1 0 1 0 1 1 1 1 1 1 0 1 0 1 0 1 0 1 0 1 1 1 1 1 1 0 1 0 
0 1 0 1 1 1 1 0 0 1 1 1 0 1 1 0 1 0 1 1 1 1 1 0 0 0 1 1 1 0 
0 1 1 1 1 1 1 1 1 1 1 1 0 0 1 1 1 0 0 1 1 0 1 0 1 1 1 1 1 0 
0 0 1 0 0 1 1 0 1 0 0 1 1 1 0 0 0 1 0 0 1 1 0 1 1 1 0 0 1 1 
0 1 0 1 0 0 0 0 1 0 1 1 1 1 1 0 1 1 1 1 0 1 1 1 1 0 1 1 1 0 
1 1 1 1 0 1 1 0 1 0 1 1 1 1 1 0 1 1 1 0 1 1 1 1 1 1 1 1 1 1 
0 1 1 1 1 1 1 1 1 1 1 1 0 1 0 1 0 1 1 0 1 1 1 1 0 1 1 1 0 1 
1 1 0 1 1 1 0 0 0 1 0 1 1 0 1 1 1 1 1 0 0 1 0 1 1 0 1 0 1 0 
0 1 0 1 1 1 1 1 1 1 0 1 1 1 1 1 1 0 1 1 1 0 1 1 0 1 1 1 0 0 
0 1 1 0 0 0 1 1 1 0 0 1 1 1 1 1 1 0 1 1 0 1 1 0 1 1 0 0 0 1 
1 1 1 0 0 1 1 0 1 1 0 1 1 0 0 1 1 1 0 1 0 1 1 0 1 1 0 1 1 1 
1 1 1 1 0 1 1 1 1 1 1 0 1 0 1 1 1 1 1 1 1 1 0 1 1 0 1 0 0 1 
1 1 0 0 0 1 0 0 0 1 0 0 0 0 0 0 1 0 0 1 0 1 1 1 0 1 0 0 0 0 
1 0 0 0 1 1 1 0 1 0 1 0 0 1 1 0 1 1 1 0 0 1 0 1 0 1 1 1 1 1 
1 0 0 1 1 0 1 1 1 1 1 0 0 0 0 0 1 1 0 1 1 0 0 0 0 1 1 0 0 1 
0 0 0 0 0 1 0 1 1 0 0 0 1 1 1 0 1 0 0 1 0 1 1 1 0 1 0 0 1 1 
1 0 1 0 0 1 0 0 1 1 1 0 1 0 1 1 1 0 1 1 1 1 1 1 1 0 0 1 1 0 
1 0 1 0 0 0 0 1 1 0 1 1 0 0 1 0 0 0 1 0 1 0 1 0 1 1 0 0 0 1 
0 0 1 1 0 0 1 0 1 0 0 0 1 0 1 0 1 1 0 0 1 1 0 0 0 0 1 0 1 0 
0 1 0 0 1 0 1 1 0 1 0 0 1 1 0 0 0 1 0 0 0 1 1 1 0 1 0 0 0 1 
1 0 0 1 1 1 0 0 0 1 0 1 0 0 0 1 1 1 1 1 0 0 0 0 0 0 0 1 0 0 
1 0 0 0 0 0 0 0 0 0 1 0 0 0 0 1 1 0 0 0 0 0 0 0 0 0 0 0 0 0 
1 0 0 0 0 0 0 0 0 1 0 0 1 0 0 0 0 0 0 0 0 0 0 0 0 0 0 0 0 0 
0 0 0 0 0 0 0 0 0 0 0 0 0 0 0 0 0 0 0 0 0 0 0 0 1 1 1 1 1 1 
1 1 1 1 1 1 1 1 1 1 1 1 1 1 1 1 1 1 1 1 1 1 1 1 1 1 1 1 1 1 
1 1 1 1 1 1 1 1 1 1 1 1 1 1 1 1 1 0 0 1 1 1 1 1 1 1 1 1 1 0 
1 1 1 1 1 1 1 1 1 1 1 1 1 1 0 0 1 1 1 1 1 1 1 1 0 0 1 1 1 1 
1 1 1 1 0 0 0 0 1 1 1 1 0 0 0 0 1 1 1 1 1 1 1 1 1 1 1 1 1 1 
1 1 0 0 1 1 0 0 0 0 0 0 0 0 1 1 1 1 0 0 0 0 0 0 1 1 0 0 1 1 
1 1 1 1 1 1 0 0 1 1 1 1 1 1 1 1 1 1 1 1 1 1 0 0 0 0 0 0 1 1 
1 1 1 1 0 0 0 0 0 0 0 0 0 1 1 1 1 1 1 1 1 1 1 1 1 1 1 1 1 1 
0 0 1 1 1 1 1 1 1 1 1 1 0 0 1 1 1 1 1 1 1 1 0 0 0 0 0 0 0 0 
1 1 

SCALARS sensitivity_number float
LOOKUP_TABLE default
1.904208e-10 6.202856e-09 6.167292e-09 6.166778e-09 4.465779e-09 6.06436e-09 
2.060103e-09 4.898424e-09 4.312822e-09 3.700008e-09 4.53226e-09 6.161721e-09 
7.382369e-18 5.053908e-09 3.582364e-10 3.795476e-09 3.409618e-09 4.492189e-09 
4.831402e-09 6.174054e-11 5.326077e-09 2.806946e-09 6.654795e-09 4.681413e-09 
4.930308e-09 3.21209e-09 2.646381e-09 2.267763e-17 6.939472e-18 4.820987e-18 
5.275047e-09 2.857217e-09 6.330841e-18 4.135693e-09 6.319828e-09 5.345105e-11 
3.734856e-09 4.00553e-09 3.455329e-09 3.239906e-09 2.707058e-09 6.276148e-09 
2.454268e-09 4.322372e-09 2.457993e-09 6.803834e-09 7.01831e-09 1.055031e-17 
3.43947e-11 5.228245e-09 3.710329e-09 2.784031e-09 3.656292e-09 2.154159e-09 
5.957089e-09 7.605415e-09 5.187579e-09 2.775153e-09 2.141635e-09 5.65701e-09 
9.636505e-10 6.446221e-09 3.780597e-09 6.515978e-09 1.425918e-09 2.759591e-09 
2.80784e-09 3.973428e-09 2.373244e-09 2.17677e-09 4.397114e-09 3.022642e-09 
7.599175e-09 5.67335e-09 1.268054e-09 3.055236e-09 2.441327e-09 3.444262e-09 
6.763612e-09 6.636624e-10 3.080256e-09 3.679762e-10 2.058556e-09 3.092879e-09 
2.561655e-11 2.399733e-09 2.353836e-09 4.783727e-09 7.069827e-10 3.425931e-09 
3.49509e-09 1.362397e-09 1.162785e-08 5.519018e-09 4.653637e-09 2.143281e-09 
2.856622e-09 6.640554e-09 4.504568e-09 9.213611e-18 3.140138e-09 2.45874e-11 
8.87156e-09 1.162545e-09 4.924226e-09 2.947025e-17 1.05135e-09 2.020369e-10 
4.294058e-11 4.81488e-09 4.968028e-09 1.725572e-17 1.092352e-10 1.905358e-09 
2.534589e-09 1.668517e-09 3.522253e-09 5.311833e-09 2.55418e-09 5.288459e-09 
3.729524e-10 3.889076e-09 2.74782e-09 7.835447e-17 2.43946e-09 2.527359e-09 
1.797919e-09 1.116832e-09 3.933568e-09 3.760937e-09 1.068836e-09 1.27751e-09 
2.397117e-09 3.714435e-09 1.721608e-09 3.825559e-09 2.263512e-10 2.508222e-17 
6.936029e-09 4.649939e-11 4.724375e-09 5.835101e-09 2.794077e-17 3.508919e-09 
3.768748e-09 6.494029e-09 6.193218e-09 3.922596e-09 6.655732e-09 2.741135e-09 
7.750179e-17 5.324337e-09 4.339193e-09 3.007945e-09 3.977896e-09 4.861426e-09 
2.144042e-09 2.989909e-09 5.444324e-09 2.998411e-09 1.119821e-09 1.254386e-17 
5.248189e-09 1.257623e-08 1.276495e-09 2.01247e-10 6.082625e-09 2.27165e-09 
1.349124e-09 2.838394e-18 4.921451e-09 3.087148e-10 3.551769e-09 6.168248e-09 
2.971086e-09 3.353498e-09 5.183128e-09 1.324768e-09 4.856467e-09 4.228538e-09 
8.88735e-09 4.040015e-09 3.037374e-09 5.155071e-11 6.1181e-09 3.622784e-09 
4.99311e-09 3.089832e-09 4.979845e-09 3.203785e-09 1.403417e-09 5.56897e-09 
7.542605e-09 3.518735e-11 3.533548e-09 6.174474e-09 1.258559e-09 5.060357e-09 
1.539581e-10 9.280367e-10 9.136574e-10 3.054046e-09 2.776896e-09 6.200723e-09 
2.674998e-10 6.116308e-09 3.01343e-09 4.363716e-09 1.124498e-08 3.050355e-09 
1.329659e-10 4.036708e-18 1.134146e-08 3.960943e-09 1.347069e-09 7.60707e-09 
4.419834e-09 1.092321e-09 2.87146e-09 1.602867e-09 1.494448e-09 1.501043e-09 
2.174296e-17 1.696323e-17 3.631059e-09 9.02544e-11 2.164209e-10 1.986138e-09 
5.584615e-09 6.246718e-10 1.857897e-17 8.225407e-09 3.151513e-09 3.102092e-09 
3.495636e-09 8.490825e-10 4.124278e-09 3.010404e-10 2.825522e-09 6.360065e-10 
6.851182e-09 1.198763e-09 6.533046e-09 6.159117e-10 6.192584e-09 2.588994e-09 
1.060416e-09 3.008504e-09 5.735823e-09 1.22222e-09 3.818468e-09 6.021713e-09 
4.905222e-10 1.157888e-09 3.114603e-09 2.583342e-17 4.971508e-09 5.258643e-09 
4.336556e-09 3.102776e-10 6.138504e-09 3.587517e-11 1.081673e-09 5.490281e-09 
1.478318e-17 3.968899e-10 2.722391e-17 7.647086e-09 8.8165e-10 6.658954e-09 
2.036136e-09 3.022934e-09 4.462998e-10 3.524408e-10 3.276177e-09 3.578637e-10 
1.105271e-09 5.044221e-09 3.40677e-09 9.415757e-10 3.964147e-10 2.10281e-18 
1.040146e-08 2.597463e-09 3.317154e-09 4.149755e-18 5.314647e-09 2.85926e-09 
1.5425e-09 8.949408e-10 2.311583e-09 2.009295e-09 2.876635e-09 3.45496e-09 
3.788283e-09 1.339307e-09 4.181249e-09 6.205438e-09 4.079197e-18 4.393655e-09 
1.286178e-09 6.840568e-09 7.045552e-09 4.579594e-17 1.47609e-09 1.947343e-10 
3.948732e-10 4.699354e-09 1.652917e-17 2.176513e-17 1.143622e-08 1.506189e-09 
7.584586e-10 4.244189e-17 9.259785e-10 1.648705e-09 1.052218e-09 1.207661e-09 
3.662382e-10 1.971877e-09 4.53898e-09 4.512332e-09 8.849905e-09 7.8614e-10 
6.584893e-09 3.187396e-10 2.985577e-09 2.467304e-09 6.733942e-10 1.822061e-10 
1.551826e-09 9.08806e-10 1.000311e-09 1.061758e-09 7.614765e-10 8.300525e-09 
1.707927e-09 3.387439e-09 9.260494e-10 3.857486e-09 9.446737e-10 2.845448e-09 
2.908577e-09 3.438496e-09 2.331805e-11 1.712701e-09 2.927262e-09 3.195895e-10 
7.45783e-09 1.193719e-09 4.254292e-09 3.010172e-11 1.605421e-09 4.563953e-09 
1.182474e-09 9.208641e-10 1.032258e-08 2.78917e-09 4.243195e-09 1.591544e-09 
7.591116e-10 7.862038e-10 2.811533e-17 1.215928e-09 4.052413e-09 2.436649e-11 
1.542039e-09 6.980693e-09 3.090579e-11 3.164995e-11 6.475248e-09 7.809317e-10 
6.532755e-09 9.946021e-09 3.469703e-09 1.475811e-09 2.62238e-09 2.536428e-10 
7.798733e-09 3.012462e-10 1.718918e-10 1.880016e-09 4.166013e-09 5.901416e-09 
2.067585e-09 1.033459e-08 3.628738e-09 6.911506e-09 8.948755e-11 1.174846e-08 
3.920561e-17 9.427591e-17 4.203509e-18 6.932804e-10 3.613215e-11 1.740062e-17 
6.906562e-09 6.562065e-18 1.188824e-09 2.733669e-11 7.807195e-10 4.492947e-17 
1.531682e-09 2.558358e-09 3.765445e-09 2.329159e-09 1.597939e-08 8.723398e-09 
5.016547e-09 2.189029e-17 1.127829e-09 4.674523e-09 1.408292e-09 5.497804e-10 
4.487382e-09 1.012933e-08 1.195766e-08 3.396633e-09 4.918735e-09 4.707254e-10 
2.82222e-17 3.634584e-17 4.951904e-10 3.304434e-11 5.470621e-17 2.883214e-09 
1.007019e-09 7.111253e-10 8.102381e-10 3.082883e-09 4.990309e-09 6.938896e-10 
2.966021e-09 7.456108e-09 4.739145e-09 6.028762e-10 2.694078e-17 2.442257e-09 
7.599431e-10 6.856482e-10 7.562253e-19 7.938144e-10 2.987224e-10 2.529283e-11 
5.375212e-09 3.306019e-11 1.077416e-09 3.238638e-09 5.224199e-18 2.536515e-17 
1.825978e-09 1.077652e-08 1.161139e-08 7.470082e-09 5.674219e-10 4.963276e-09 
3.486417e-09 6.718725e-09 8.437024e-18 2.423945e-11 2.589769e-11 1.206572e-09 
4.629759e-09 4.922658e-10 1.877636e-17 4.272717e-09 8.011601e-10 1.497251e-08 
2.1812e-09 3.036393e-09 7.593864e-10 3.055978e-18 4.618922e-09 6.590094e-09 
3.424755e-09 3.139947e-17 1.341659e-09 6.702871e-09 1.968076e-10 2.80542e-10 
3.338592e-09 3.741212e-09 1.121781e-09 4.718007e-09 1.119675e-08 2.709666e-09 
1.307407e-08 8.337513e-10 1.483777e-09 2.594866e-09 2.71791e-11 3.15842e-17 
3.963994e-09 2.332579e-17 3.080749e-09 8.68767e-09 1.105226e-10 8.866486e-09 
5.442473e-18 4.710083e-09 7.567948e-09 7.169771e-10 1.449538e-17 6.889813e-18 
1.376374e-09 9.7319e-10 1.312083e-10 1.881347e-09 3.568473e-09 1.480807e-10 
6.861318e-11 1.070178e-08 7.099673e-09 1.380989e-09 6.667318e-09 5.45501e-09 
3.26784e-09 3.388718e-09 5.372215e-10 6.009786e-09 3.749786e-17 5.90975e-09 
1.982583e-17 2.785189e-09 6.302905e-09 9.386348e-09 6.219892e-09 6.166096e-09 
2.796523e-11 2.678128e-17 5.670274e-10 1.264981e-08 1.117384e-08 6.407974e-09 
1.744338e-17 6.629818e-09 1.106126e-10 1.119481e-08 3.965207e-09 1.544381e-09 
7.321005e-18 8.753955e-10 1.143835e-09 4.637801e-17 2.179365e-09 7.44346e-10 
5.981219e-09 6.533389e-18 4.612713e-10 1.49828e-10 1.568981e-10 1.318393e-18 
7.392737e-10 6.951201e-09 1.225055e-10 1.188894e-08 6.72851e-10 6.327219e-11 
1.741096e-10 2.86244e-17 3.154666e-11 9.137498e-18 7.944896e-10 3.512965e-10 
6.712422e-09 2.752485e-09 3.998528e-10 2.088078e-10 2.608079e-09 1.558536e-18 
1.914999e-10 1.029249e-09 3.610475e-10 7.259778e-10 2.848234e-17 7.70613e-10 
8.557349e-10 9.807209e-09 5.878473e-10 4.989129e-09 1.888215e-10 8.330636e-09 
7.997713e-18 8.400673e-09 2.284347e-09 2.389342e-11 6.426728e-09 1.490136e-09 
2.862751e-11 7.350709e-10 2.072816e-10 5.334879e-10 9.740421e-10 2.464564e-17 
3.027259e-09 5.503084e-09 1.576465e-09 3.155798e-17 4.139848e-18 3.518891e-18 
1.014608e-09 1.692287e-17 1.062358e-09 5.012772e-10 7.916956e-10 1.710243e-10 
1.756901e-17 1.52107e-09 6.79196e-10 5.507662e-09 1.013862e-09 3.869784e-09 
6.894816e-10 3.208361e-09 1.109759e-09 4.762004e-09 9.017123e-10 3.148151e-09 
1.255337e-08 7.198778e-09 1.285281e-10 6.498356e-09 2.29825e-09 7.386218e-09 
1.178975e-09 3.108714e-17 6.940513e-09 3.315627e-10 2.710925e-17 6.456992e-09 
3.959282e-09 1.051084e-09 2.902623e-17 1.975007e-09 1.682804e-10 5.14578e-09 
3.182938e-10 5.234082e-09 1.235527e-08 4.986571e-09 1.233057e-08 9.822437e-11 
3.532757e-09 1.379639e-09 5.253637e-11 6.381946e-18 7.31293e-11 1.396069e-10 
3.044467e-09 1.336604e-17 2.198795e-17 2.993615e-17 2.134054e-10 8.093981e-17 
2.074563e-11 9.511968e-09 2.096813e-10 2.554793e-09 1.684314e-17 4.684372e-19 
1.35032e-17 1.033379e-08 1.884268e-10 1.864257e-10 2.905471e-17 6.700054e-18 
8.063622e-18 3.603313e-09 3.621016e-17 2.36989e-09 8.033175e-09 5.745701e-17 
1.046653e-09 6.528399e-18 5.814975e-09 1.28166e-17 5.752441e-18 3.2884e-11 
3.636953e-17 4.38949e-09 5.099807e-09 3.843738e-10 1.127269e-09 3.227604e-10 
1.130284e-16 9.961081e-10 1.963638e-09 3.842125e-18 2.302141e-09 5.58745e-09 
4.543618e-09 2.424417e-09 9.000904e-09 1.06058e-08 1.075002e-08 4.872396e-09 
1.001803e-09 1.892265e-17 2.543608e-10 5.200588e-09 2.332252e-18 1.706931e-17 
1.270045e-09 3.062792e-11 2.502179e-17 1.243269e-08 1.374872e-08 7.975179e-10 
5.317704e-09 4.488235e-17 3.803474e-09 1.073321e-17 1.251972e-08 4.731025e-17 
2.736769e-10 1.618908e-10 3.394138e-09 9.763848e-09 7.384059e-10 6.721877e-10 
5.73509e-09 9.642284e-18 3.974326e-09 2.532227e-09 2.188369e-10 5.375825e-11 
5.800677e-11 2.141709e-10 6.603141e-11 2.584786e-17 5.53474e-18 6.863953e-10 
3.349202e-09 1.085403e-17 2.027373e-17 3.748979e-17 1.643126e-08 2.289283e-17 
1.143148e-09 2.554526e-10 3.21352e-17 4.797705e-09 3.705556e-11 1.730346e-09 
7.749571e-09 3.1321e-11 1.843675e-17 1.092997e-09 3.84581e-18 6.724767e-10 
5.552224e-09 2.578532e-18 1.109423e-09 2.474899e-11 7.817798e-18 2.218118e-10 
2.222131e-17 1.492958e-09 5.353724e-09 4.366071e-09 9.409761e-18 7.130385e-18 
7.791562e-09 1.025392e-08 4.726366e-09 1.163497e-09 2.32358e-17 7.40291e-09 
1.07654e-10 9.89944e-18 1.390048e-08 4.659715e-19 6.492915e-10 1.805416e-09 
5.822138e-11 6.941691e-09 4.284604e-11 6.602268e-17 1.432992e-18 4.47706e-09 
3.070076e-09 1.448307e-09 4.457207e-17 1.202307e-08 2.455281e-18 6.18434e-18 
7.737191e-09 2.035601e-17 1.37344e-08 9.817594e-09 2.427572e-09 7.009709e-11 
1.196682e-08 5.811293e-11 4.103873e-11 5.66728e-18 8.433196e-09 2.959324e-09 
2.433864e-17 6.317146e-09 2.367298e-18 2.125858e-09 4.72326e-18 1.512258e-17 
2.243372e-17 4.934952e-17 1.14064e-08 1.385171e-10 2.402354e-09 2.532705e-09 
3.050187e-10 6.566531e-10 1.138219e-08 8.026587e-09 2.705505e-11 1.179314e-08 
1.211619e-09 2.296319e-11 7.354098e-09 1.21862e-09 1.180375e-08 5.281837e-09 