# vtk DataFile Version 3.0
Results from optimization
ASCII
DATASET UNSTRUCTURED_GRID

POINTS 3131 float
0.0 0.0 0.0 0.0 30.0 0.0 
100.0 0.0 0.0 100.0 30.0 0.0 
0.0 1.0 0.0 0.0 2.0 0.0 
0.0 3.0 0.0 0.0 4.0 0.0 
0.0 5.0 0.0 0.0 6.0 0.0 
0.0 7.0 0.0 0.0 8.0 0.0 
0.0 9.0 0.0 0.0 10.0 0.0 
0.0 11.0 0.0 0.0 12.0 0.0 
0.0 13.0 0.0 0.0 14.0 0.0 
0.0 15.0 0.0 0.0 16.0 0.0 
0.0 17.0 0.0 0.0 18.0 0.0 
0.0 19.0 0.0 0.0 20.0 0.0 
0.0 21.0 0.0 0.0 22.0 0.0 
0.0 23.0 0.0 0.0 24.0 0.0 
0.0 25.0 0.0 0.0 26.0 0.0 
0.0 27.0 0.0 0.0 28.0 0.0 
0.0 29.0 0.0 1.0 0.0 0.0 
2.0 0.0 0.0 3.0 0.0 0.0 
4.0 0.0 0.0 5.0 0.0 0.0 
6.0 0.0 0.0 7.0 0.0 0.0 
8.0 0.0 0.0 9.0 0.0 0.0 
10.0 0.0 0.0 11.0 0.0 0.0 
12.0 0.0 0.0 13.0 0.0 0.0 
14.0 0.0 0.0 15.0 0.0 0.0 
16.0 0.0 0.0 17.0 0.0 0.0 
18.0 0.0 0.0 19.0 0.0 0.0 
20.0 0.0 0.0 21.0 0.0 0.0 
22.0 0.0 0.0 23.0 0.0 0.0 
24.0 0.0 0.0 25.0 0.0 0.0 
26.0 0.0 0.0 27.0 0.0 0.0 
28.0 0.0 0.0 29.0 0.0 0.0 
30.0 0.0 0.0 31.0 0.0 0.0 
32.0 0.0 0.0 33.0 0.0 0.0 
34.0 0.0 0.0 35.0 0.0 0.0 
36.0 0.0 0.0 37.0 0.0 0.0 
38.0 0.0 0.0 39.0 0.0 0.0 
40.0 0.0 0.0 41.0 0.0 0.0 
42.0 0.0 0.0 43.0 0.0 0.0 
44.0 0.0 0.0 45.0 0.0 0.0 
46.0 0.0 0.0 47.0 0.0 0.0 
48.0 0.0 0.0 49.0 0.0 0.0 
50.0 0.0 0.0 51.0 0.0 0.0 
52.0 0.0 0.0 53.0 0.0 0.0 
54.0 0.0 0.0 55.0 0.0 0.0 
56.0 0.0 0.0 57.0 0.0 0.0 
58.0 0.0 0.0 59.0 0.0 0.0 
60.0 0.0 0.0 61.0 0.0 0.0 
62.0 0.0 0.0 63.0 0.0 0.0 
64.0 0.0 0.0 65.0 0.0 0.0 
66.0 0.0 0.0 67.0 0.0 0.0 
68.0 0.0 0.0 69.0 0.0 0.0 
70.0 0.0 0.0 71.0 0.0 0.0 
72.0 0.0 0.0 73.0 0.0 0.0 
74.0 0.0 0.0 75.0 0.0 0.0 
76.0 0.0 0.0 77.0 0.0 0.0 
78.0 0.0 0.0 79.0 0.0 0.0 
80.0 0.0 0.0 81.0 0.0 0.0 
82.0 0.0 0.0 83.0 0.0 0.0 
84.0 0.0 0.0 85.0 0.0 0.0 
86.0 0.0 0.0 87.0 0.0 0.0 
88.0 0.0 0.0 89.0 0.0 0.0 
90.0 0.0 0.0 91.0 0.0 0.0 
92.0 0.0 0.0 93.0 0.0 0.0 
94.0 0.0 0.0 95.0 0.0 0.0 
96.0 0.0 0.0 97.0 0.0 0.0 
98.0 0.0 0.0 99.0 0.0 0.0 
100.0 1.0 0.0 100.0 2.0 0.0 
100.0 3.0 0.0 100.0 4.0 0.0 
100.0 5.0 0.0 100.0 6.0 0.0 
100.0 7.0 0.0 100.0 8.0 0.0 
100.0 9.0 0.0 100.0 10.0 0.0 
100.0 11.0 0.0 100.0 12.0 0.0 
100.0 13.0 0.0 100.0 14.0 0.0 
100.0 15.0 0.0 100.0 16.0 0.0 
100.0 17.0 0.0 100.0 18.0 0.0 
100.0 19.0 0.0 100.0 20.0 0.0 
100.0 21.0 0.0 100.0 22.0 0.0 
100.0 23.0 0.0 100.0 24.0 0.0 
100.0 25.0 0.0 100.0 26.0 0.0 
100.0 27.0 0.0 100.0 28.0 0.0 
100.0 29.0 0.0 1.0 30.0 0.0 
2.0 30.0 0.0 3.0 30.0 0.0 
4.0 30.0 0.0 5.0 30.0 0.0 
6.0 30.0 0.0 7.0 30.0 0.0 
8.0 30.0 0.0 9.0 30.0 0.0 
10.0 30.0 0.0 11.0 30.0 0.0 
12.0 30.0 0.0 13.0 30.0 0.0 
14.0 30.0 0.0 15.0 30.0 0.0 
16.0 30.0 0.0 17.0 30.0 0.0 
18.0 30.0 0.0 19.0 30.0 0.0 
20.0 30.0 0.0 21.0 30.0 0.0 
22.0 30.0 0.0 23.0 30.0 0.0 
24.0 30.0 0.0 25.0 30.0 0.0 
26.0 30.0 0.0 27.0 30.0 0.0 
28.0 30.0 0.0 29.0 30.0 0.0 
30.0 30.0 0.0 31.0 30.0 0.0 
32.0 30.0 0.0 33.0 30.0 0.0 
34.0 30.0 0.0 35.0 30.0 0.0 
36.0 30.0 0.0 37.0 30.0 0.0 
38.0 30.0 0.0 39.0 30.0 0.0 
40.0 30.0 0.0 41.0 30.0 0.0 
42.0 30.0 0.0 43.0 30.0 0.0 
44.0 30.0 0.0 45.0 30.0 0.0 
46.0 30.0 0.0 47.0 30.0 0.0 
48.0 30.0 0.0 49.0 30.0 0.0 
50.0 30.0 0.0 51.0 30.0 0.0 
52.0 30.0 0.0 53.0 30.0 0.0 
54.0 30.0 0.0 55.0 30.0 0.0 
56.0 30.0 0.0 57.0 30.0 0.0 
58.0 30.0 0.0 59.0 30.0 0.0 
60.0 30.0 0.0 61.0 30.0 0.0 
62.0 30.0 0.0 63.0 30.0 0.0 
64.0 30.0 0.0 65.0 30.0 0.0 
66.0 30.0 0.0 67.0 30.0 0.0 
68.0 30.0 0.0 69.0 30.0 0.0 
70.0 30.0 0.0 71.0 30.0 0.0 
72.0 30.0 0.0 73.0 30.0 0.0 
74.0 30.0 0.0 75.0 30.0 0.0 
76.0 30.0 0.0 77.0 30.0 0.0 
78.0 30.0 0.0 79.0 30.0 0.0 
80.0 30.0 0.0 81.0 30.0 0.0 
82.0 30.0 0.0 83.0 30.0 0.0 
84.0 30.0 0.0 85.0 30.0 0.0 
86.0 30.0 0.0 87.0 30.0 0.0 
88.0 30.0 0.0 89.0 30.0 0.0 
90.0 30.0 0.0 91.0 30.0 0.0 
92.0 30.0 0.0 93.0 30.0 0.0 
94.0 30.0 0.0 95.0 30.0 0.0 
96.0 30.0 0.0 97.0 30.0 0.0 
98.0 30.0 0.0 99.0 30.0 0.0 
16.0 1.0 0.0 22.0 1.0 0.0 
28.0 1.0 0.0 34.0 1.0 0.0 
40.0 1.0 0.0 46.0 1.0 0.0 
52.0 1.0 0.0 58.0 1.0 0.0 
64.0 1.0 0.0 70.0 1.0 0.0 
76.0 1.0 0.0 82.0 1.0 0.0 
15.0 29.0 0.0 20.0 29.0 0.0 
25.0 29.0 0.0 30.0 29.0 0.0 
35.0 29.0 0.0 40.0 29.0 0.0 
45.0 29.0 0.0 50.0 29.0 0.0 
55.0 29.0 0.0 60.0 29.0 0.0 
65.0 29.0 0.0 70.0 29.0 0.0 
75.0 29.0 0.0 80.0 29.0 0.0 
99.0 13.0 0.0 85.0 29.0 0.0 
1.0 12.0 0.0 1.0 18.0 0.0 
99.0 18.0 0.0 88.0 1.0 0.0 
8.99999999994914 0.999999999973743 0.0 99.0 8.0 0.0 
8.0 29.0 0.0 89.0 29.0 0.0 
99.0 22.0 0.0 0.999995859328856 6.99995963616369 0.0 
1.0 23.0 0.0 93.0 1.0 0.0 
93.0 29.0 0.0 4.99897846844128 0.999401131561401 0.0 
99.0 4.0 0.0 99.0 25.0 0.0 
4.0 29.0 0.0 0.998018130894958 3.99456365118287 0.0 
96.0 29.0 0.0 1.0 27.0 0.0 
2.98755098591844 0.99220568858159 0.0 13.0 1.0 0.0 
97.0 1.0 0.0 99.0 27.0 0.0 
0.999999999429266 9.99999999116626 0.0 1.0 16.0 0.0 
20.0 1.0 0.0 26.0 1.0 0.0 
32.0 1.0 0.0 38.0 1.0 0.0 
44.0 1.0 0.0 50.0 1.0 0.0 
56.0 1.0 0.0 62.0 1.0 0.0 
68.0 1.0 0.0 74.0 1.0 0.0 
80.0 1.0 0.0 86.0 1.0 0.0 
99.0 15.0 0.0 10.0 29.0 0.0 
17.0 29.0 0.0 22.0 29.0 0.0 
27.0 29.0 0.0 32.0 29.0 0.0 
37.0 29.0 0.0 42.0 29.0 0.0 
47.0 29.0 0.0 52.0 29.0 0.0 
57.0 29.0 0.0 62.0 29.0 0.0 
67.0 29.0 0.0 72.0 29.0 0.0 
77.0 29.0 0.0 82.0 29.0 0.0 
0.982043965477184 1.98304218642421 0.0 1.0 29.0 0.0 
99.0 1.0 0.0 99.0 29.0 0.0 
0.983223912217958 0.987621281485569 0.0 0.999949380687591 5.99961944502072 0.0 
0.999999970537249 8.99999955168247 0.0 1.0 14.0 0.0 
1.0 20.0 0.0 1.0 22.0 0.0 
1.0 25.0 0.0 6.99998134409618 0.99999175922936 0.0 
10.9999999999491 0.999999999973743 0.0 15.0 1.0 0.0 
18.0 1.0 0.0 24.0 1.0 0.0 
30.0 1.0 0.0 36.0 1.0 0.0 
42.0 1.0 0.0 48.0 1.0 0.0 
54.0 1.0 0.0 60.0 1.0 0.0 
66.0 1.0 0.0 72.0 1.0 0.0 
78.0 1.0 0.0 84.0 1.0 0.0 
90.0 1.0 0.0 92.0 1.0 0.0 
95.0 1.0 0.0 99.0 2.0 0.0 
99.0 5.0 0.0 99.0 6.0 0.0 
99.0 9.0 0.0 99.0 10.0 0.0 
99.0 11.0 0.0 99.0 16.0 0.0 
99.0 19.0 0.0 99.0 20.0 0.0 
99.0 23.0 0.0 2.0 29.0 0.0 
5.0 29.0 0.0 6.0 29.0 0.0 
11.0 29.0 0.0 12.0 29.0 0.0 
13.0 29.0 0.0 18.0 29.0 0.0 
23.0 29.0 0.0 28.0 29.0 0.0 
33.0 29.0 0.0 38.0 29.0 0.0 
43.0 29.0 0.0 48.0 29.0 0.0 
53.0 29.0 0.0 58.0 29.0 0.0 
63.0 29.0 0.0 68.0 29.0 0.0 
73.0 29.0 0.0 78.0 29.0 0.0 
83.0 29.0 0.0 86.0 29.0 0.0 
87.0 29.0 0.0 90.0 29.0 0.0 
91.0 29.0 0.0 94.0 29.0 0.0 
97.0 29.0 0.0 16.0 2.0 0.0 
22.0 28.0 0.0 27.0 28.0 0.0 
52.0 28.0 0.0 57.0 28.0 0.0 
82.0 28.0 0.0 32.0 28.0 0.0 
37.0 28.0 0.0 62.0 28.0 0.0 
67.0 28.0 0.0 42.0 28.0 0.0 
72.0 28.0 0.0 98.0 15.0 0.0 
12.0 28.0 0.0 98.0 19.0 0.0 
89.0 28.0 0.0 98.0 10.0 0.0 
1.99999999531953 9.999999928767 0.0 93.0 2.0 0.0 
2.0 23.0 0.0 98.0 22.0 0.0 
93.0 28.0 0.0 1.99998433821395 6.9998796865685 0.0 
98.0 5.0 0.0 5.0 28.0 0.0 
85.0 28.0 0.0 96.0 28.0 0.0 
1.98413137230705 0.988341966066793 0.0 0.993390117123437 2.98985247870427 0.0 
0.999537928146093 4.99813727245904 0.0 0.999998442801018 7.99998651096591 0.0 
0.999999999636129 10.9999999944437 0.0 1.0 13.0 0.0 
1.0 15.0 0.0 1.0 17.0 0.0 
1.0 19.0 0.0 1.0 21.0 0.0 
1.0 24.0 0.0 1.0 26.0 0.0 
1.0 28.0 0.0 3.99605406296194 0.997383435909015 0.0 
5.99977465143194 0.999865295129002 0.0 7.9999965299808 0.999998450318377 0.0 
9.99999999988557 0.999999999940923 0.0 11.9999999999936 0.999999999996718 0.0 
14.0 1.0 0.0 17.0 1.0 0.0 
19.0 1.0 0.0 21.0 1.0 0.0 
23.0 1.0 0.0 25.0 1.0 0.0 
27.0 1.0 0.0 29.0 1.0 0.0 
31.0 1.0 0.0 33.0 1.0 0.0 
35.0 1.0 0.0 37.0 1.0 0.0 
39.0 1.0 0.0 41.0 1.0 0.0 
43.0 1.0 0.0 45.0 1.0 0.0 
47.0 1.0 0.0 49.0 1.0 0.0 
51.0 1.0 0.0 53.0 1.0 0.0 
55.0 1.0 0.0 57.0 1.0 0.0 
59.0 1.0 0.0 61.0 1.0 0.0 
63.0 1.0 0.0 65.0 1.0 0.0 
67.0 1.0 0.0 69.0 1.0 0.0 
71.0 1.0 0.0 73.0 1.0 0.0 
75.0 1.0 0.0 77.0 1.0 0.0 
79.0 1.0 0.0 81.0 1.0 0.0 
83.0 1.0 0.0 85.0 1.0 0.0 
87.0 1.0 0.0 89.0 1.0 0.0 
91.0 1.0 0.0 94.0 1.0 0.0 
96.0 1.0 0.0 98.0 1.0 0.0 
99.0 3.0 0.0 99.0 7.0 0.0 
99.0 12.0 0.0 99.0 14.0 0.0 
99.0 17.0 0.0 99.0 21.0 0.0 
99.0 24.0 0.0 99.0 26.0 0.0 
99.0 28.0 0.0 3.0 29.0 0.0 
7.0 29.0 0.0 9.0 29.0 0.0 
14.0 29.0 0.0 16.0 29.0 0.0 
19.0 29.0 0.0 21.0 29.0 0.0 
24.0 29.0 0.0 26.0 29.0 0.0 
29.0 29.0 0.0 31.0 29.0 0.0 
34.0 29.0 0.0 36.0 29.0 0.0 
39.0 29.0 0.0 41.0 29.0 0.0 
44.0 29.0 0.0 46.0 29.0 0.0 
49.0 29.0 0.0 51.0 29.0 0.0 
54.0 29.0 0.0 56.0 29.0 0.0 
59.0 29.0 0.0 61.0 29.0 0.0 
64.0 29.0 0.0 66.0 29.0 0.0 
69.0 29.0 0.0 71.0 29.0 0.0 
74.0 29.0 0.0 76.0 29.0 0.0 
79.0 29.0 0.0 81.0 29.0 0.0 
84.0 29.0 0.0 88.0 29.0 0.0 
92.0 29.0 0.0 95.0 29.0 0.0 
98.0 29.0 0.0 98.0 8.0 0.0 
10.0 28.0 0.0 86.0 28.0 0.0 
90.0 28.0 0.0 22.0 2.0 0.0 
28.0 2.0 0.0 34.0 2.0 0.0 
40.0 2.0 0.0 46.0 2.0 0.0 
52.0 2.0 0.0 58.0 2.0 0.0 
64.0 2.0 0.0 70.0 2.0 0.0 
76.0 2.0 0.0 82.0 2.0 0.0 
2.0 16.0 0.0 85.0 27.0 0.0 
88.0 2.0 0.0 11.9999999999928 1.99999999999631 0.0 
89.0 27.0 0.0 8.99999961400676 1.99999982348209 0.0 
5.9997075717904 1.99979502371096 0.0 1.99934767917968 4.99734291783241 0.0 
16.0 28.0 0.0 46.0 28.0 0.0 
76.0 28.0 0.0 2.0 27.0 0.0 
3.99556896721827 1.99618513026716 0.0 97.0 2.0 0.0 
2.0 20.0 0.0 94.0 28.0 0.0 
24.0 28.0 0.0 29.0 28.0 0.0 
34.0 28.0 0.0 39.0 28.0 0.0 
54.0 28.0 0.0 59.0 28.0 0.0 
64.0 28.0 0.0 69.0 28.0 0.0 
98.0 12.0 0.0 7.0 28.0 0.0 
98.0 24.0 0.0 97.0 28.0 0.0 
20.0 2.0 0.0 26.0 2.0 0.0 
32.0 2.0 0.0 38.0 2.0 0.0 
44.0 2.0 0.0 50.0 2.0 0.0 
56.0 2.0 0.0 62.0 2.0 0.0 
68.0 2.0 0.0 74.0 2.0 0.0 
80.0 2.0 0.0 86.0 2.0 0.0 
1.99999981323511 8.99999805583899 0.0 2.0 14.0 0.0 
91.0 2.0 0.0 98.0 20.0 0.0 
18.0 28.0 0.0 48.0 28.0 0.0 
78.0 28.0 0.0 83.0 28.0 0.0 
87.0 28.0 0.0 91.0 28.0 0.0 
98.0 7.0 0.0 14.0 28.0 0.0 
20.0 28.0 0.0 25.0 28.0 0.0 
30.0 28.0 0.0 35.0 28.0 0.0 
40.0 28.0 0.0 44.0 28.0 0.0 
50.0 28.0 0.0 55.0 28.0 0.0 
60.0 28.0 0.0 65.0 28.0 0.0 
70.0 28.0 0.0 74.0 28.0 0.0 
80.0 28.0 0.0 98.0 13.0 0.0 
1.99999999996321 11.9999999994391 0.0 2.0 18.0 0.0 
98.0 17.0 0.0 98.0 18.0 0.0 
8.0 28.0 0.0 98.0 3.0 0.0 
98.0 4.0 0.0 98.0 25.0 0.0 
3.0 28.0 0.0 4.0 28.0 0.0 
1.9971839117747 3.993137435461 0.0 1.98608618048036 1.98526975763388 0.0 
14.0 2.0 0.0 98.0 26.0 0.0 
98.0 27.0 0.0 1.99983949066551 5.99923056007149 0.0 
2.0 22.0 0.0 2.0 25.0 0.0 
7.99999502590895 1.99999772908988 0.0 10.9999999997687 1.99999999988056 0.0 
15.0 2.0 0.0 18.0 2.0 0.0 
[...]
CELL_DATA 3000

SCALARS element_states float
LOOKUP_TABLE default
1 1 1 1 1 1 1 0 0 0 0 0 0 0 0 0 0 1 1 1 1 1 1 1 0 0 0 1 1 1 
1 1 1 0 1 1 1 0 1 0 0 0 1 0 0 1 1 1 0 0 0 1 0 0 0 0 1 1 1 1 
1 1 1 1 1 0 0 0 0 0 0 0 0 0 0 0 0 0 0 0 1 1 1 1 1 1 1 1 1 1 
1 1 1 1 1 1 1 1 1 1 1 1 1 1 1 1 1 1 1 1 1 1 1 1 1 1 1 1 1 1 
1 1 1 1 1 1 1 1 1 1 1 1 1 1 1 1 1 1 1 1 1 1 1 1 1 1 1 1 1 1 
1 1 1 1 1 1 1 1 1 1 1 1 1 1 1 1 1 1 1 1 1 1 1 1 1 1 1 1 1 1 
1 1 1 1 1 1 1 1 0 0 0 0 0 0 0 0 0 0 0 0 0 0 0 0 0 0 0 0 0 0 
0 0 0 1 1 1 1 1 1 1 1 1 1 1 1 1 1 1 1 1 1 1 1 1 1 1 1 1 1 1 
1 1 1 1 1 1 1 1 1 1 1 1 1 1 1 1 1 1 1 1 1 1 1 1 1 1 1 1 1 1 
1 1 1 1 1 1 1 1 1 1 1 1 1 1 1 0 1 0 0 0 0 0 0 0 0 0 0 0 0 0 
0 0 0 0 0 0 0 0 0 0 0 1 1 1 1 1 1 1 1 1 1 1 1 1 1 0 0 0 1 1 
1 1 1 0 1 1 1 1 1 1 0 1 1 1 1 1 1 1 1 1 1 0 1 1 1 1 1 1 1 1 
1 1 1 0 0 0 0 0 0 0 0 0 0 1 1 1 1 1 1 1 1 1 1 1 1 1 1 1 1 1 
1 1 1 1 1 1 1 1 1 1 1 0 0 0 0 0 0 1 1 1 1 1 0 1 1 1 1 1 1 0 
1 1 0 0 1 1 0 0 1 0 0 0 1 0 0 0 0 0 0 0 0 0 0 0 1 1 1 1 1 1 
1 1 1 1 1 1 1 1 1 1 1 1 1 1 1 1 1 1 1 1 1 1 1 1 1 1 1 1 1 1 
1 1 1 1 1 1 1 1 1 1 1 1 1 1 1 1 1 1 1 1 1 1 1 1 1 1 1 1 1 1 
1 1 1 1 1 1 1 1 1 1 1 1 1 1 1 1 1 1 1 0 0 0 0 0 0 1 1 1 1 1 
1 1 1 1 1 1 1 1 1 1 1 0 0 0 0 0 0 0 1 1 0 0 0 0 0 1 1 0 0 0 
1 1 1 0 0 1 1 0 0 0 1 0 1 1 1 0 0 0 0 0 0 1 1 1 1 1 1 1 1 1 
1 1 1 0 0 0 0 0 1 1 0 0 1 1 1 1 0 1 1 0 0 1 1 1 1 0 1 1 1 1 
0 0 0 0 0 0 0 1 1 1 1 1 1 1 1 1 1 1 1 1 1 1 1 1 1 1 1 1 1 1 
1 1 1 1 1 1 0 0 1 1 1 1 1 1 1 1 1 1 1 1 0 0 0 0 1 0 1 1 0 0 
0 0 1 1 1 1 1 1 1 0 1 1 0 1 1 0 0 1 1 1 1 1 1 1 1 1 1 1 1 1 
1 1 1 1 0 0 0 0 0 0 0 1 1 1 1 1 1 1 1 1 1 1 1 1 1 1 1 1 1 1 
1 1 1 1 1 1 1 1 1 1 1 1 1 1 1 1 1 1 1 1 1 1 0 1 0 0 0 0 1 0 
0 0 1 0 0 0 0 0 0 0 0 0 0 0 0 0 0 0 0 0 0 0 1 1 1 1 1 1 1 1 
1 1 0 0 0 1 1 0 0 0 0 1 1 1 1 1 1 1 1 1 1 1 1 1 1 1 1 0 0 0 
1 1 1 0 1 1 1 1 1 1 1 1 1 1 0 0 0 0 0 0 0 0 0 0 0 1 1 1 1 1 
1 1 1 1 0 0 0 0 1 1 1 1 1 1 0 1 1 1 1 0 0 0 0 0 1 1 1 1 1 1 
0 0 0 0 1 1 1 0 0 0 0 1 0 1 0 1 1 1 1 1 1 0 0 1 1 1 1 1 0 0 
1 1 0 1 1 0 1 1 1 1 1 1 1 1 1 1 1 0 0 0 0 0 0 0 0 0 0 0 0 0 
0 0 0 1 0 0 0 1 1 1 1 1 1 1 1 1 1 1 1 1 1 0 1 1 1 1 1 1 0 1 
1 1 1 1 1 0 0 0 1 1 1 1 1 1 1 0 0 0 1 0 0 0 0 1 1 0 0 0 0 0 
1 1 1 1 0 0 0 0 1 1 1 1 0 0 1 1 0 1 1 1 1 1 1 1 0 1 1 1 1 1 
1 1 1 1 1 1 1 0 0 0 0 0 0 1 1 1 0 1 0 1 1 1 1 1 1 1 1 1 1 0 
1 1 1 1 1 1 0 0 1 1 1 1 1 1 1 1 1 1 1 1 1 0 0 1 1 1 1 0 0 0 
0 0 0 0 0 1 1 1 0 0 0 0 1 0 1 1 1 1 1 1 1 1 1 1 0 0 0 0 1 1 
1 1 1 1 0 0 1 1 1 0 0 1 1 1 0 0 0 0 1 1 1 1 1 0 1 1 1 1 0 0 
0 1 0 1 1 1 1 1 1 1 0 1 1 1 1 1 0 0 1 1 1 1 0 0 0 0 0 0 1 0 
1 1 1 1 1 1 1 1 1 1 1 1 1 1 0 0 0 0 0 0 0 0 0 0 0 0 1 1 1 1 
1 1 1 1 1 1 0 1 1 0 0 0 0 0 0 1 1 1 0 0 0 1 1 0 0 1 1 1 1 1 
1 1 1 1 1 1 1 1 1 0 1 0 1 0 0 1 0 1 0 1 1 0 0 0 1 1 0 0 0 0 
1 1 1 1 1 1 1 1 0 0 1 1 1 1 1 1 1 1 1 1 1 1 0 0 0 1 1 1 1 0 
0 0 0 0 0 0 1 0 1 0 0 1 1 1 1 1 1 1 1 1 1 1 1 1 1 1 1 0 1 0 
0 0 0 1 1 1 0 0 0 0 0 0 0 1 0 0 0 0 0 0 1 1 1 1 1 1 1 1 0 1 
0 0 1 1 0 0 1 1 1 1 1 1 1 1 1 1 1 1 0 0 0 0 0 0 0 0 1 1 1 0 
1 1 0 1 0 1 1 0 1 1 0 1 1 1 1 1 0 0 0 1 1 1 1 0 0 0 1 1 1 1 
1 1 1 1 1 1 0 0 0 0 0 0 1 1 1 0 0 0 1 1 0 0 0 1 1 0 0 1 0 0 
0 0 1 0 1 1 1 1 1 1 1 0 1 0 0 1 1 1 1 1 1 1 1 0 0 0 1 1 0 0 
1 1 1 1 1 0 0 0 1 1 1 1 1 1 1 0 0 0 0 1 1 0 0 1 1 1 0 0 1 1 
0 0 1 1 0 1 1 1 0 0 0 0 1 1 1 1 0 1 1 1 0 1 0 0 1 1 1 1 0 1 
0 0 1 1 1 1 0 0 1 1 1 1 1 1 1 0 1 1 0 1 1 0 0 1 1 1 1 1 1 1 
0 1 0 0 0 0 0 0 0 1 1 1 1 1 1 1 1 0 0 1 1 1 1 1 1 1 0 0 0 0 
0 0 1 1 0 0 0 0 0 0 0 0 1 1 1 1 0 0 0 1 1 1 1 1 1 1 0 0 0 0 
0 0 0 0 1 1 0 0 1 0 0 1 1 1 0 1 1 1 0 1 1 0 0 1 0 0 0 1 0 1 
0 0 1 0 1 0 0 1 0 0 1 1 0 1 1 0 0 1 1 0 0 1 1 1 1 0 0 1 1 1 
0 0 0 0 1 1 1 1 1 1 0 1 1 1 1 1 1 1 0 0 1 0 0 0 0 1 1 1 0 0 
0 0 1 0 0 0 0 1 1 0 0 1 0 1 1 1 1 0 1 1 1 1 1 0 0 0 0 1 0 0 
1 0 1 1 1 1 1 1 1 1 1 1 0 0 0 0 1 0 1 1 0 1 0 1 1 1 0 0 0 0 
0 1 1 0 0 1 1 1 1 1 1 1 0 0 0 0 0 0 0 0 1 0 0 1 1 1 1 0 0 1 
1 1 0 1 1 1 1 0 0 0 0 1 1 1 1 1 1 1 0 0 0 0 0 0 0 0 0 0 0 0 
0 0 1 1 1 1 1 0 0 1 1 0 0 0 0 0 0 0 0 0 0 0 0 1 1 1 1 1 1 1 
1 1 0 0 1 0 1 0 1 1 1 0 0 0 0 1 1 0 0 0 1 1 1 0 0 0 0 1 1 0 
1 0 0 0 0 0 1 0 0 0 1 1 0 0 1 0 0 0 1 0 0 0 1 1 0 0 1 1 1 1 
1 1 0 1 1 0 1 0 0 1 0 0 1 0 0 0 1 1 1 0 1 1 1 1 1 1 1 1 1 0 
0 0 0 0 1 0 1 1 1 1 1 1 1 1 1 1 0 0 1 0 0 0 0 0 1 0 0 0 1 1 
1 1 1 0 1 0 1 1 0 0 1 0 1 0 0 0 0 1 0 0 0 0 1 0 1 0 1 1 1 0 
0 0 0 1 1 0 0 0 0 0 1 1 0 0 0 0 1 0 0 0 0 1 1 1 1 0 1 0 1 0 
0 0 0 0 0 0 0 0 0 0 0 0 1 1 0 1 0 0 0 0 0 1 1 1 0 0 0 0 1 1 
0 0 0 1 1 1 0 1 1 1 1 1 1 0 0 0 0 0 0 0 0 0 0 0 0 1 1 1 1 1 
1 1 0 0 0 1 0 0 0 0 1 1 0 0 0 0 0 0 1 1 1 0 1 0 0 0 1 0 0 0 
1 0 0 1 0 0 0 0 0 0 1 1 0 0 0 1 1 1 0 0 1 1 0 1 0 0 1 1 1 1 
0 1 1 1 1 1 0 0 0 1 1 0 0 0 0 0 0 0 0 0 1 0 0 1 1 0 0 0 0 0 
1 0 0 0 1 1 1 1 1 1 1 1 0 0 0 1 1 1 0 1 0 0 0 1 0 0 0 0 0 1 
1 0 1 0 1 1 0 1 1 0 0 0 1 0 0 1 0 0 1 0 0 0 0 0 1 0 0 0 0 0 
0 1 1 0 1 1 0 0 0 0 0 0 0 0 0 0 0 0 0 0 1 0 0 0 0 0 1 1 0 0 
0 1 1 1 1 0 0 0 0 0 0 1 1 0 0 0 0 0 0 1 1 1 1 0 0 0 0 1 0 0 
0 0 0 0 1 1 1 0 0 1 1 0 0 0 0 0 0 0 0 0 1 1 1 1 1 0 0 1 0 0 
0 0 0 1 1 0 0 0 0 0 1 1 0 1 0 0 0 0 0 0 0 0 0 0 0 0 0 0 0 0 
1 1 1 0 0 1 0 0 0 0 0 1 0 0 0 0 0 1 1 1 0 0 1 0 0 1 0 1 1 1 
1 1 1 1 1 1 1 0 0 1 0 1 0 1 0 0 0 0 0 0 0 1 1 1 1 1 1 0 1 0 
0 1 1 1 1 1 1 1 0 0 0 0 1 1 0 0 0 1 0 0 0 0 0 0 1 1 0 1 0 0 
0 0 0 0 0 0 0 0 0 1 1 0 0 0 0 0 1 0 0 1 0 0 0 1 0 0 0 0 0 0 
1 1 0 0 0 0 0 0 0 0 1 0 0 0 0 1 1 1 0 0 0 0 0 1 1 0 0 0 1 1 
1 1 1 1 0 0 0 0 0 1 0 0 0 0 1 0 0 1 0 0 0 1 1 0 0 0 0 0 0 1 
1 1 1 0 0 0 1 0 0 1 1 0 0 0 1 1 0 0 0 0 0 0 1 1 0 0 0 0 0 1 
0 1 0 1 1 1 0 0 1 1 1 1 0 0 1 0 0 0 0 0 0 0 1 1 1 0 0 1 0 1 
0 0 1 0 1 1 1 0 0 0 1 1 1 1 1 0 1 1 1 0 1 1 1 1 0 0 0 0 0 0 
0 0 0 0 0 0 0 0 0 0 0 0 0 0 0 0 0 0 0 0 0 0 0 1 1 1 0 1 0 1 
1 1 1 0 0 0 1 1 0 0 0 1 0 0 1 1 0 0 1 0 0 0 0 0 0 0 0 0 0 1 
0 1 1 0 0 0 1 0 0 0 1 1 1 1 0 0 0 0 0 1 1 0 0 1 0 0 1 1 0 0 
1 0 1 0 0 0 0 0 1 0 1 0 0 0 0 0 0 0 1 1 0 1 0 0 0 0 0 0 0 0 
1 1 1 0 0 1 0 0 0 0 0 0 0 0 1 1 1 1 0 1 0 0 1 0 1 0 1 1 0 0 
0 0 0 0 1 1 0 0 0 1 1 0 0 0 1 1 1 1 1 1 1 1 1 1 0 1 1 0 0 0 
0 1 0 1 0 0 0 0 0 0 0 0 0 0 0 0 0 0 0 0 0 0 0 0 1 1 1 1 1 1 
0 0 0 0 0 1 1 0 1 0 0 0 0 0 1 0 0 0 0 0 0 1 0 1 1 1 1 0 0 1 
0 0 0 0 0 0 0 1 1 1 1 0 0 0 0 0 1 1 1 0 0 0 0 1 0 0 1 0 1 0 
0 0 1 0 0 0 1 1 0 0 0 0 0 0 0 0 0 0 0 0 0 0 0 0 0 0 1 1 0 0 
0 0 0 1 1 0 0 0 0 0 0 0 0 0 0 0 0 0 0 0 0 0 0 1 0 0 0 1 1 1 


SCALARS sensitivity_number float
LOOKUP_TABLE default
0.007704981865277646 0.006703849943989548 0.005725617794465633 0.006753935535698845 0.005829241926375855 0.003255147629362139 
0.002830496060837357 1.4687941757103231e-08 1.4631366088355704e-08 1.535318152564204e-08 1.543222602308555e-08 1.534022403519211e-08 
1.722709891093607e-08 2.9450730416011716e-11 1.455600526952594e-11 6.70415328161355e-11 3.633167075769097e-11 0.0032478374506592954 
0.003129470159954214 0.003130994035783735 0.002598047061996735 0.0019507231217608877 0.0019909241217333034 0.0009587935885141712 
0.0012681394666439459 0.001265908045337439 0.00014623118038535068 0.0010559489009143823 0.0011062974609153738 0.0017088184114149353 
0.0016604498140640668 0.0012090967860236969 0.0016138131477066219 1.4965093864033503e-08 0.0018091334920432912 0.0023697206784823706 
0.0015159278900866758 1.4783791761010877e-08 0.0018413535001831783 1.5512245540096853e-08 0.0012376255252584806 0.0014872555375749906 
0.0013792398695758445 1.6077358763634514e-08 1.5897732505742963e-08 0.0018216951250564228 0.0016527443809776171 0.0021465522647953765 
0.0005075428778048411 1.590065195419046e-08 1.4986988242527513e-08 0.0017760580802042927 1.6632518002580757e-08 1.8302678631301704e-08 
1.9416280973385183e-08 1.7760947669647326e-08 0.008093285707592646 0.007677392886024321 0.00562805014315256 0.006625236793288905 
0.004714048003660609 0.003912581177778452 0.003287218387891538 0.0031287895080432814 0.0016515653066963211 0.0013817600473880164 
2.4781196378906727e-08 8.175112123883605e-05 2.314479097443141e-08 2.3884250322459386e-08 2.626294109044048e-08 2.513883721352112e-08 
2.8241193644412813e-08 2.731318612921758e-08 2.9065026335922058e-08 2.9639429438843762e-08 3.035320266082507e-08 3.1128226867330165e-08 
4.079274579857719e-05 0.0007302781687500415 0.0021025433868143172 0.008272713158024012 0.004581022512856145 0.015469479539597627 
0.03737496871300131 0.027115925545651072 0.008262854047477777 0.008351245744975278 0.008312623512832957 0.008364440287476729 
0.008347811723830416 0.008249817405703574 0.008305369420214691 0.008198761709292459 0.008169790113630363 0.008220210412812826 
0.008175453442632217 0.0083009252128804 0.008410637428042085 0.008543483327563548 0.008698063401046547 0.008877272334393801 
0.009317460267072381 0.00908444176822384 0.00980354911251386 0.009564310849918635 0.010011472393862741 0.010172645080507282 
0.01036929246852174 0.010287521071512833 0.010462258852137897 0.010430044908182024 0.010430037043929445 0.01027736554890358 
0.009436454979369248 0.009952699241943332 0.00798524753516671 0.008756853408148526 0.007209172080105612 0.006498081420609671 
0.005343022059021879 0.005879525695897414 0.004432987598759722 0.0048654818387276364 0.004046199922289258 0.0037046397310362693 
0.0031087742022739614 0.003398311760854015 0.002542621541493064 0.0028231220273283496 0.0022847178896528036 0.002080958606485099 
0.002029992963124593 0.0019765353382765485 0.0026967905483478044 0.002287359408073679 0.0030907901032589174 0.003295631316298254 
0.003343528103140834 0.003336687703801866 0.0039020973158612393 0.0035192853584447023 0.004032101442016751 0.004049307968917289 
0.004046862266095505 0.004049677361639822 0.0037174106214402703 0.003924694929633066 0.0039217151720978664 0.0040436075676936805 
0.0037157553132062915 0.0039210940876047715 0.004053435952659573 0.003927241920658427 0.004056587235786833 0.004062506216668121 
0.004063718344708827 0.004062987508482999 0.004065780688376584 0.004064776220062938 0.004066805068512759 0.00406784679764059 
0.004069984282963981 0.004068905170897441 0.004072132282266352 0.004071079490524283 0.004073255894866341 0.004076177885642064 
0.004054475382594217 0.004072582229456969 0.003487275206392244 0.0039096498476171105 0.003281722832822347 0.0034640240423905798 
0.0037398840096414102 0.003461194766961895 0.003270041796974841 0.0034604279407668397 0.00370469449429392 0.002984592009870276 
0.003274977118071444 0.00366248529246831 0.02048013831999512 0.012648417710477955 0.01990090931584154 0.004972967831599907 
0.009305602714048476 0.002580988128412865 0.0012876181219899287 4.1077217647402825e-09 0.0003330853782995569 3.2214952624305433e-09 
2.5757018949941146e-09 2.1987243666966533e-09 1.5351323159110883e-09 1.8640030227195118e-09 1.2287697661279995e-09 9.52011580865352e-10 
7.140146144339629e-10 3.6170634542609137e-10 5.175426897715532e-10 2.42666242504021e-10 1.5526107609929894e-10 5.307511477037207e-11 
9.389332106154205e-11 2.7680999514432693e-11 5.659200860634067e-12 1.3145116237519052e-11 2.3162096163494733e-12 1.1107793813063915e-12 
7.715947076192069e-13 5.831682188164754e-13 5.145826591227963e-13 0.03964636464440131 0.018582972891860224 0.023862461675122234 
0.01589761255668399 0.0137255933704394 0.010526046759210438 0.011974286348752812 0.009353340908382909 0.008424144711843563 
0.007707927905804856 0.00716967743136798 0.006770209164521302 0.006220515478273346 0.006467316090733308 0.005998946713968277 
0.005787636100626368 0.005588737576149644 0.005274305166308437 0.005414338237148274 0.005167174136972886 0.0050780551321189075 
0.004986729661229805 0.004740684607132037 0.004876557586705854 0.004581520296944998 0.004407005593991135 0.004226868652091137 
0.0038875399206257794 0.004050714462170405 0.0037452992611109242 0.0036292977240528 0.0035402812044061207 0.0034181431713738585 
0.0034730854495699623 0.003364937884659647 0.003306633249494611 0.00324307530907465 0.003135825291159916 0.0031816245519482667 
0.0031232516256499547 0.0031634480955791892 0.0032761114108132814 0.0037766405563354195 0.0034778366931731784 0.004168188727762323 
0.00463654384211653 0.005135595447830946 0.005832402633304001 0.005575468544905089 0.005802614428607012 0.00547700086035183 
0.0049710259385938775 0.004065209523730255 0.004443766178103955 0.0038392412067293625 0.003693674700062461 0.003522042124128596 
0.0030120187134887316 0.0032866984225660865 0.002730090979031565 0.002466205959761688 0.0022477972022295453 0.0020043976292242224 
0.002093942282419191 0.001944629437942034 0.0018759723603151374 0.0017759349044562517 0.0015052409544747411 0.001646737152279958 
0.0013744734262928998 0.001312463848117882 0.001375013275131277 0.0018764991538804466 0.0015316123574333918 0.00156340361826375 
0.001114964649622481 0.0006397196226851375 8.636877488285823e-09 0.00020635164902527663 6.644016928655998e-09 5.410237789961682e-09 
3.846939413842593e-09 1.810512845159438e-09 2.6746988566756217e-09 1.1910103320237743e-09 7.621277589397941e-10 3.0000975254436854e-10 
4.817921032044048e-10 1.811863315464132e-10 1.0476507099857282e-10 2.912075514571479e-11 5.724957686744042e-11 5.76833491941006e-12 
1.357638115121538e-11 2.3426069500286356e-12 1.1209611645113106e-12 5.848889488805115e-13 7.769664726513549e-13 0.005660154096501454 
0.005857420834053922 0.004504312512243791 0.0037487366013847566 0.0033255303677938728 0.0030192968326975085 0.003692508794610682 
0.0034044850471447023 0.003809667583626696 0.002906952225317724 0.0020555815596823854 0.0015941985629304319 0.0018446513911564264 
0.001640849396559374 1.6616592355235628e-09 3.174950575826754e-10 4.4949743523675444e-10 0.00983105480793364 0.007852482428201978 
0.007839960237917798 0.0027746791288976937 0.004157868411497321 1.425610835969784e-11 0.014731742471554092 0.017210401357374217 
0.0056609202879222475 0.0047550535433280175 0.007697712335581394 0.00776750326876365 2.5357436672921262e-12 0.005465464157095331 
0.00527590910350183 0.004036445528146013 0.004427094125143292 0.0017039870701638057 0.001469529653412961 0.006654789314990789 
0.0033089683992028563 0.003957002507399666 0.0009616738177232153 0.00015971035301266893 0.007836009999311343 0.007794037961433368 
0.007658420813548963 0.007961205588301386 0.007857838751187951 0.00221947319138542 0.002441963493028448 0.0025423288723074454 
0.01321461125014127 0.006133286567922007 0.001594797482055915 0.0010745822379087033 2.5648682759320596e-09 3.380925273837169e-09 
2.2965840447198634e-09 1.9804678833808174e-09 8.245089051830444e-10 6.173973607325112e-10 2.166229097574958e-10 5.208463076883041e-11 
2.8514983292830242e-11 0.026679845248712468 0.02077332272506759 0.012771198357231553 0.011158732375172217 0.0067171111155575215 
0.007220204738902187 0.0063480369664586905 0.006075024890151901 0.004727096760399525 0.004628040764213366 0.004048927755557658 
0.0038941123310286176 0.0034332585683844534 0.003373895669019265 0.003150802451386226 0.0030802559802853157 0.0030526959405131684 
0.0031891136088163965 0.004484637824910308 0.004123333113606401 0.0033483486116283228 0.003132833504650088 0.002281605212916581 
0.002139694266480439 0.0018374158127655266 0.0017141569957091927 0.0015492300150979508 0.001806091857404451 4.067198608917932e-09 
1.3055160883371592e-09 8.644602779884779e-10 2.4871088597836315e-10 1.5648571585846123e-10 2.552628743010854e-12 0.008076735463452733 
0.00480604639668242 0.00420669787988004 0.004875041660217825 0.003517720952435924 5.498092357536108e-09 0.003513928194333875 
0.0032184652119139055 0.0024778708342995145 0.0019401123332288058 0.0029890042837617944 0.0014903129887153827 1.071265027000341e-09 
0.005464549626966071 0.0057816056736547175 3.83802328343445e-10 0.00014689083495142782 0.0025431544857934356 0.0009701731532685241 
8.852202816467564e-11 5.462704472558063e-11 0.002832328302347291 1.9449012552837863e-09 6.447932176401724e-12 1.7461182029059282e-11 
0.0019946200717461337 2.3316944170503472e-08 2.4149297022389637e-08 2.3804277829421493e-08 2.627123515301094e-08 2.523187410835773e-08 
2.7303994002622926e-08 2.8301784908247133e-08 3.02448507079815e-08 2.9302844868324088e-08 3.177717920347689e-08 3.1186007518528865e-08 
0.0025428736352806425 0.009044874986051348 0.005178980466628081 0.015823176734101097 0.007803618383230679 0.007738397055173808 
0.007686334417974177 0.007655590557754651 0.008210138686659 0.008555466339218176 0.00836899645621422 0.008958277325697506 
0.008759568232552173 0.009122830136412427 0.009233468525408151 0.009315390936724247 0.009290689977426051 0.009341523699073685 
0.009331013762981072 0.009316491869441078 0.009199018233686048 0.008478334456997444 0.008929899848682801 0.007152892710025592 
0.007863370449702416 0.00644153540509936 0.0058076859649536594 0.004840743428963009 0.005281060472014369 0.004082105978793812 
0.004446795175274477 0.003752473927000716 0.003470422674899626 0.002992296259412346 0.003224883525727047 0.002499836515829936 
0.002751833626761224 0.0022479341341253914 0.002019946008454638 0.0017841937602654878 0.001849990010701805 0.002099490988921303 
0.0018733781265043627 0.0023269632809737044 0.00244326554010576 0.0024240360084116916 0.0024497612380367417 0.002456608774430439 
0.0025539911445417365 0.002623106036628869 0.0026527213386231866 0.002635773114664782 0.0026507995403710133 0.0027506716146234356 
0.002513830915727381 0.002513947367269254 0.002620207388010912 0.0027520290927369627 0.002511719337784695 0.0026357007809863606 
0.00251203895551221 0.002651563703338801 0.0026510408119142744 0.002651589112424278 0.002651877931836995 0.002651970690427204 
0.002651839896691099 0.002652136735683938 0.002652306317781905 0.0026526763101514753 0.0026524909667717013 0.0026529671505381 
0.0026529140946760905 0.002653660219903153 0.0026532817759002663 0.0026229480803464152 0.002656692434285257 0.0025743353335098552 
0.002438336807198729 0.002444183470214888 0.0025438319266616635 0.002195327315960758 0.002519331202910483 0.0025080007369800753 
0.0038607640464805456 0.0002597160398935895 1.3534021237468308e-09 1.4188795781832501e-10 6.3687452516630426e-12 5.584480849878248e-13 
9.933434309173135e-13 0.007888938411506105 0.008750514099198053 0.005107804536749025 0.004976523456796732 0.004881255815298297 
0.004361050233713522 0.0036198369757051273 0.0032764596115171605 0.002983356868054789 0.004809861459953853 0.005071545107444544 
0.00509997464440768 0.003644406519120595 0.0026891234346493095 0.0020065641783977017 0.0015064934728006984 0.0013350576607813946 
0.0006557757678334657 0.0001515297809817626 2.8075408356285986e-09 5.785607506476507e-10 9.481392967374866e-11 9.966277712883492e-13 
0.006223936055215959 0.006803632220539583 1.5214525980147745e-09 3.9460014551761286e-10 2.714929029547853e-08 2.205695972096192e-09 
2.425304600536676e-09 0.0010886535576902201 0.0009943128641028889 5.629857126339025e-10 7.48481459998076e-10 5.561692237154408e-10 
0.006787532530342454 0.01544240797725086 0.0030850622187388516 3.401790805019298e-08 2.3229070034130697e-09 0.008415884592875397 
0.00948058473102541 2.417079487223973e-12 7.145164978108406e-12 0.001428365930820754 0.0008241122357542466 3.556876361957979e-10 
0.0046363533981412935 0.002996555998186025 0.0025400134751135638 3.007450808879108e-09 5.1382036896383575e-09 1.0830121057199293e-09 
7.875362378419275e-10 2.7042125842441435e-10 0.0012203046488019219 0.0015818100065760515 0.0052481608340072166 0.004010768459035511 
0.0034672303428955483 0.0031336546083605148 0.00278283822456008 0.002621409228943149 0.00371031104470548 0.002654727722706176 
0.0021939707011591186 0.0017593422749694744 0.002151624789706535 1.9672563153754076e-09 2.8237652280599267e-08 2.9478704000228722e-08 
4.864231083432074e-10 6.475187597882432e-10 0.0030816712043589367 0.0033261476229707707 1.7291431906377823e-11 3.5708640396373054e-11 
0.012240171420386461 0.013961511277076748 0.004834772080316189 0.0067345756890498905 7.117226305741921e-12 0.0033277086579550203 
0.004037780898788137 0.00045680172989072057 3.280142522552202e-05 0.006693852110913693 0.006748301390334937 0.006604197284941169 
0.006778397936954492 0.0013060372742984166 0.001082276468070006 0.0010042760447960839 0.0010848992687654251 0.0025087512720007904 