# vtk DataFile Version 3.0
Results from optimization
ASCII
DATASET UNSTRUCTURED_GRID

POINTS 465 float
94.234 9.6631219 3.556 115.357764 0.218732358 3.556 
94.234 9.6631219 -3.556 115.357764 0.218732358 -3.556 
36.83 -3.175 -3.683 36.83 -3.175 -12.827 
1.86095112e-15 -3.175 -4.953 1.30104261e-15 -3.175 -14.097 
1.30104261e-15 -3.175 4.953 1.86095112e-15 -3.175 14.097 
36.83 -3.175 3.683 36.83 -3.175 12.827 
36.83 0.0 -3.683 36.83 0.0 -12.827 
36.83 0.0 12.827 36.83 0.0 3.683 
1.30104261e-15 0.0 4.953 1.86095112e-15 0.0 14.097 
1.30104261e-15 0.0 -14.097 1.86095112e-15 0.0 -4.953 
115.57 -2.20713268 3.556 87.63 -2.20713268 3.556 
111.9 -2.07 3.556 96.45 6.85006166 3.556 
96.45 -10.9900617 3.556 115.57 -2.20713268 -3.556 
87.63 -2.20713268 -3.556 96.45 6.85006166 -3.556 
111.9 -2.07 -3.556 96.45 -10.9900617 -3.556 
36.83 -3.175 -5.842 36.83 -3.175 -10.668 
36.83 0.0 -5.842 36.83 0.0 -10.668 
1.30104261e-15 -3.175 -7.112 1.59654988e-15 -3.175 -11.938 
1.30104261e-15 0.0 -7.112 1.59654988e-15 0.0 -11.938 
1.30104261e-15 -3.175 11.938 1.59654988e-15 -3.175 7.112 
1.30104261e-15 0.0 11.938 1.59654988e-15 0.0 7.112 
36.83 -3.175 10.668 36.83 -3.175 5.842 
36.83 0.0 10.668 36.83 0.0 5.842 
98.4136241 11.3946285 3.556 102.927417 11.6996593 3.556 
107.301998 10.5462243 3.556 111.078586 8.05528922 3.556 
113.861113 4.48808932 3.556 94.234 9.6631219 0.0 
115.357764 0.218732358 0.0 113.861113 4.48808932 -3.556 
111.078586 8.05528922 -3.556 107.301998 10.5462243 -3.556 
102.927417 11.6996593 -3.556 98.4136241 11.3946285 -3.556 
40.7894681 -3.175 -5.969 40.7894681 -3.175 -10.541 
32.8705319 -3.175 -10.541 32.8705319 -3.175 -5.969 
3.95946815 -3.175 -7.239 3.95946815 -3.175 -11.811 
-3.95946815 -3.175 -11.811 -3.95946815 -3.175 -7.239 
-3.95946815 -3.175 7.239 -3.95946815 -3.175 11.811 
3.95946815 -3.175 11.811 3.95946815 -3.175 7.239 
32.8705319 -3.175 5.969 32.8705319 -3.175 10.541 
40.7894681 -3.175 10.541 40.7894681 -3.175 5.969 
40.7894681 0.0 -5.969 40.7894681 0.0 -10.541 
32.8705319 0.0 -10.541 32.8705319 0.0 -5.969 
40.7894681 0.0 10.541 40.7894681 0.0 5.969 
32.8705319 0.0 5.969 32.8705319 0.0 10.541 
-3.95946815 0.0 7.239 -3.95946815 0.0 11.811 
3.95946815 0.0 11.811 3.95946815 0.0 7.239 
-3.95946815 0.0 -11.811 -3.95946815 0.0 -7.239 
3.95946815 0.0 -7.239 3.95946815 0.0 -11.811 
88.4724941 -6.98515409 3.556 90.8983591 -11.1868756 3.556 
94.615 -14.3055076 3.556 99.174135 -15.964897 3.556 
104.025865 -15.964897 3.556 108.585 -14.3055076 3.556 
112.301641 -11.1868756 3.556 114.727506 -6.98515409 3.556 
90.7104725 6.54381532 3.556 88.4226027 2.43152019 3.556 
111.009518 2.11938742 3.556 108.492045 5.5843917 3.556 
104.782875 7.72588212 3.556 100.523357 8.17357552 3.556 
100.523357 -12.3135755 3.556 104.782875 -11.8658821 3.556 
108.492045 -9.7243917 3.556 111.009518 -6.25938742 3.556 
93.267125 3.9841881 3.556 91.5250797 0.0714904154 3.556 
91.5250797 -4.21149042 3.556 93.267125 -8.1241881 3.556 
115.57 -2.20713268 0.0 87.63 -2.20713268 0.0 
88.4724941 -6.98515409 -3.556 90.8983591 -11.1868756 -3.556 
94.615 -14.3055076 -3.556 99.174135 -15.964897 -3.556 
104.025865 -15.964897 -3.556 108.585 -14.3055076 -3.556 
112.301641 -11.1868756 -3.556 114.727506 -6.98515409 -3.556 
90.7104725 6.54381532 -3.556 88.4226027 2.43152019 -3.556 
96.45 6.85006166 0.0 111.009518 2.11938742 -3.556 
108.492045 5.5843917 -3.556 104.782875 7.72588212 -3.556 
100.523357 8.17357552 -3.556 111.9 -2.07 0.0 
100.523357 -12.3135755 -3.556 104.782875 -11.8658821 -3.556 
108.492045 -9.7243917 -3.556 111.009518 -6.25938742 -3.556 
96.45 -10.9900617 0.0 93.267125 3.9841881 -3.556 
91.5250797 0.0714904154 -3.556 91.5250797 -4.21149042 -3.556 
93.267125 -8.1241881 -3.556 34.417 -3.175 -8.255 
39.243 -3.175 -8.255 34.417 0.0 -8.255 
39.243 0.0 -8.255 -2.413 -3.175 -9.525 
2.413 -3.175 -9.525 -2.413 0.0 -9.525 
2.413 0.0 -9.525 -2.413 -3.175 9.525 
2.413 -3.175 9.525 -2.413 0.0 9.525 
2.413 0.0 9.525 34.417 -3.175 8.255 
39.243 -3.175 8.255 34.417 0.0 8.255 
39.243 0.0 8.255 112.690215 6.28804461 1.98225909 
100.517544 11.7208675 1.98604208 114.756657 2.49002331 1.88673346 
113.833094 4.53914929 -1.53442592 109.746115 9.14195151 -1.77267349 
96.3244877 10.7284721 1.88672277 104.623004 11.4318682 -1.76527917 
98.4665967 11.4069293 -1.532316 107.301108 10.5466226 1.69326756 
113.876305 4.4601927 1.65704092 113.154426 5.64500931 0.127520493 
111.099818 8.03563869 0.549833531 112.288438 6.78832081 -1.74523863 
114.75226 2.50232157 -1.79965196 114.442141 3.29198762 0.0634223878 
98.3723239 11.3848873 1.65742295 102.892424 11.702955 0.56456591 
99.7356544 11.6379067 0.138090675 101.172966 11.756339 -1.73790762 
96.338498 10.734177 -1.79917101 97.1305859 11.0286234 0.0652421758 
107.300912 10.54671 -1.50087977 105.997043 11.0528413 0.171342626 
105.254116 11.2764996 1.98227875 108.549447 9.91169948 0.170498901 
109.210562 9.50782567 1.97655837 39.1625941 -1.52542516 -4.32280101 
39.1625941 -1.52542516 -12.187199 41.402 -1.52542516 -8.255 
34.4974059 -1.52542516 -12.187199 34.4974059 -1.52542516 -4.32280101 
32.258 -1.52542516 -8.255 2.33259407 -1.52542516 -5.59280101 
2.96676735 -1.47180709 -13.0037175 4.51292084 -1.48129425 -10.2576183 
-2.33259407 -1.52542516 -13.457199 -2.33259407 -1.52542516 -5.59280101 
-4.572 -1.52542516 -9.525 -2.33259407 -1.52542516 5.59280101 
-2.96676735 -1.47180709 13.0037175 -4.51292084 -1.48129425 10.2576183 
2.33259407 -1.52542516 13.457199 2.96676735 -1.47180709 6.0462825 
4.51292084 -1.48129425 8.79238175 34.4974059 -1.52542516 4.32280101 
34.4974059 -1.52542516 12.187199 32.258 -1.52542516 8.255 
39.1625941 -1.52542516 12.187199 39.1625941 -1.52542516 4.32280101 
41.402 -1.52542516 8.255 97.6423929 -13.3291412 3.556 
106.455025 -12.9295848 3.556 113.514683 0.44772739 3.556 
111.735832 -8.53152713 3.556 89.7929337 -0.94094914 3.556 
90.9729946 -7.68079006 3.556 91.0730149 3.28028627 3.556 
93.7321942 6.81674071 3.556 111.093103 4.96309096 3.556 
107.955994 7.9525647 3.556 115.51684 -0.989566958 1.80776881 
115.51684 -0.989566958 -1.81033731 115.36001 -4.62022515 -1.10158846 
112.843716 -10.4980772 -0.121027532 105.69022 -15.5649395 -0.812983339 
97.3972224 -15.5299537 -0.84277296 90.363553 -10.5079253 -0.0850173572 
87.8401238 -4.62098978 -1.09876678 110.97023 -12.5685852 1.67507374 
106.403596 -15.325302 1.61085308 109.576692 -13.6759289 -0.246892592 
114.634595 -7.2330875 0.247852943 113.75808 -9.08768467 1.80075255 
115.345532 -4.70137401 1.32226476 96.6920002 -15.286599 1.57328033 
92.2408716 -12.5786136 1.71461092 93.622254 -13.6751957 -0.20774645 
88.5666652 -7.23635579 0.259615517 87.8545955 -4.70207875 1.32478469 
89.4441726 -9.09166316 1.8158068 101.486975 -16.1766755 -0.910344895 
99.5097797 -16.019876 1.17999793 102.848217 -16.1212569 1.51022978 
92.0557574 7.99425614 -0.00706483426 87.8995008 0.523658944 -0.00706483426 
89.3921353 4.58469623 -0.00832149249 110.245748 3.52830659 0.545448055 
102.125402 8.21659094 0.545448055 98.1385974 7.63096347 -1.79820755 
103.823926 7.98704494 -1.66772834 109.197693 4.88449892 -1.66772834 
111.731982 -0.217180812 -1.79820755 106.75 6.85006166 1.24446908 
108.474638 5.60002953 0.377243637 104.805121 7.71862588 0.377243637 
106.75 6.85006166 -1.33704766 98.966633 7.88767935 0.325768358 
111.540287 0.628276917 0.325768358 102.129323 -12.3563899 0.560680413 
110.243747 -7.67139585 0.552711283 111.73198 -3.92283009 -1.79818808 
109.190063 -9.03282598 -1.64310216 103.83172 -12.1253184 -1.62290716 
98.1386036 -11.7709657 -1.79816966 106.740888 -10.9953161 1.27509738 
104.801407 -11.8598413 0.415558152 108.465098 -9.74856991 0.406237914 
106.735943 -10.998163 -1.28829054 111.540184 -4.76865461 0.32653557 
98.9670257 -12.0277832 0.32737115 92.4270637 2.61478821 0.560680413 
92.4271753 -6.75500668 0.552711283 94.929412 -9.91813711 -1.79818808 
91.7749844 -5.16177427 -1.64310216 91.775979 1.02493331 -1.62290716 
94.9294155 5.77814008 -1.79816966 91.3000054 -2.05948186 1.27509738 
91.5210452 0.0524206697 0.415558152 91.5176146 -4.17606391 0.406237914 
91.3000128 -2.05377528 -1.28829054 94.2928044 -9.32912479 0.32653557 
94.2927939 5.18911424 0.32737115 97.6423929 -13.3291412 -3.556 
106.455025 -12.9295848 -3.556 113.514683 0.44772739 -3.556 
111.735832 -8.53152713 -3.556 89.7929337 -0.94094914 -3.556 
90.9729946 -7.68079006 -3.556 91.0730149 3.28028627 -3.556 
93.7321942 6.81674071 -3.556 111.093103 4.96309096 -3.556 
107.955994 7.9525647 -3.556 38.4563291 -3.175 -5.95804266 
38.4563291 -3.175 -10.5519573 34.9306647 -1.63050816 -9.74331935 
34.9306647 -1.63050816 -6.76668065 34.417 -1.64418808 -8.255 
38.7293353 -1.63050816 -6.76668065 38.7293353 -1.63050816 -9.74331935 
39.243 -1.64418808 -8.255 38.4563291 0.0 -10.5519573 
38.4563291 0.0 -5.95804266 1.62632906 -3.175 -7.22804266 
1.62632906 -3.175 -11.8219573 -1.89933528 -1.63050816 -11.0133194 
-1.89933528 -1.63050816 -8.03668065 -2.413 -1.64418808 -9.525 
1.89933528 -1.63050816 -8.03668065 1.89933528 -1.63050816 -11.0133194 
2.413 -1.64418808 -9.525 1.62632906 0.0 -11.8219573 
1.62632906 0.0 -7.22804266 1.62632906 -3.175 11.8219573 
1.62632906 -3.175 7.22804266 -1.89933528 -1.63050816 8.03668065 
-1.89933528 -1.63050816 11.0133194 -2.413 -1.64418808 9.525 
1.89933528 -1.63050816 11.0133194 1.89933528 -1.63050816 8.03668065 
2.413 -1.64418808 9.525 1.62632906 0.0 7.22804266 
1.62632906 0.0 11.8219573 38.4563291 -3.175 10.5519573 
38.4563291 -3.175 5.95804266 34.9306647 -1.63050816 6.76668065 
34.9306647 -1.63050816 9.74331935 34.417 -1.64418808 8.255 
38.7293353 -1.63050816 9.74331935 38.7293353 -1.63050816 6.76668065 
39.243 -1.64418808 8.255 38.4563291 0.0 5.95804266 
38.4563291 0.0 10.5519573 111.816111 -8.65972761 -1.85439765 
107.642736 8.11823879 -2.44038244 89.5596067 -3.79321899 2.11236072 
109.851875 -11.2017839 -1.86683234 104.619616 -13.7264201 1.97597563 
99.8421966 -14.0697591 -1.36786369 91.2251453 -8.54036405 1.76833292 
113.782026 -1.22252999 2.37876005 89.7802556 -1.49699434 2.00205322 
[...]
CELL_DATA 1467

SCALARS element_states float
LOOKUP_TABLE default
0 1 1 1 1 0 1 1 1 0 0 0 0 0 1 0 1 1 1 1 1 1 0 1 1 1 1 1 1 0 
0 1 1 0 0 1 0 1 1 1 0 0 1 0 1 1 0 1 0 0 1 0 1 0 1 1 1 0 0 0 
0 1 1 1 1 1 0 1 0 1 0 0 0 0 1 1 1 0 1 1 1 1 1 1 1 1 1 0 0 1 
0 1 1 1 1 1 1 1 1 0 0 1 0 1 0 1 1 0 0 1 1 0 1 0 0 0 0 0 0 1 
0 0 0 1 0 0 1 0 0 0 0 0 0 0 1 1 0 1 1 1 1 1 1 1 1 0 1 1 0 0 
0 1 1 1 0 0 0 1 1 1 1 0 1 1 1 0 0 1 0 1 0 1 0 1 0 0 1 0 0 0 
1 1 1 1 1 1 1 1 0 1 1 0 0 1 1 0 0 1 0 1 0 1 1 1 0 0 1 1 1 1 
0 1 1 1 1 0 1 0 1 0 1 1 0 1 0 0 0 1 0 0 0 1 1 1 0 1 0 0 1 0 
1 1 0 1 0 1 1 1 1 1 1 0 1 1 1 1 1 1 1 1 1 1 1 1 1 1 1 1 0 1 
0 1 1 1 0 1 1 1 0 1 1 0 1 1 1 1 0 1 0 1 1 1 0 1 1 1 1 0 0 1 
0 1 0 1 0 1 1 0 0 0 1 1 0 1 1 1 1 1 1 0 1 0 0 0 1 1 1 1 1 1 
0 1 0 1 0 1 1 1 1 0 1 1 0 1 1 1 1 1 1 1 1 0 1 1 1 0 1 0 1 1 
0 1 1 0 1 0 1 0 0 0 0 0 1 1 0 1 0 1 1 0 1 1 0 1 1 0 1 1 0 0 
1 0 1 1 1 0 1 0 1 1 0 0 0 0 1 1 0 1 0 1 1 1 0 1 1 0 0 1 0 1 
0 1 0 1 1 1 1 0 1 1 1 0 1 1 1 1 1 1 1 1 1 1 0 1 1 1 1 0 1 0 
1 0 0 1 1 0 1 1 0 1 0 1 0 1 1 1 0 0 0 1 0 1 1 1 1 1 1 0 0 0 
1 1 1 1 1 1 1 1 1 0 0 0 0 1 1 1 1 1 1 1 0 0 0 0 1 0 0 0 0 1 
0 0 0 0 0 0 0 0 0 0 0 0 0 0 1 1 1 0 1 1 1 1 1 1 0 0 1 0 0 1 
0 0 0 1 1 1 1 1 1 1 0 0 0 1 1 1 1 1 1 1 1 1 0 0 0 0 0 1 1 1 
1 1 1 1 1 1 1 1 1 1 1 1 1 1 1 0 0 0 0 0 1 1 1 1 1 1 0 0 1 1 
1 1 1 0 1 0 0 1 1 0 1 1 0 1 0 0 0 0 0 0 1 1 0 1 1 1 1 1 1 1 
0 0 1 0 1 1 0 1 1 1 1 1 1 1 1 1 1 1 0 0 0 0 1 1 1 1 1 1 0 0 
0 1 1 1 1 0 1 1 1 1 0 0 0 0 0 1 1 1 1 0 1 1 0 1 1 1 1 0 1 1 
1 1 1 1 1 1 1 1 1 1 1 1 1 1 1 1 1 0 0 0 0 0 0 1 1 1 0 0 0 0 
0 1 1 1 1 1 1 0 0 0 0 0 1 0 0 0 1 1 1 1 0 0 1 1 1 1 1 1 1 1 
1 0 1 0 0 1 0 0 1 1 1 1 1 1 1 1 1 1 1 1 1 1 1 1 1 1 1 1 1 1 
1 1 1 1 1 1 1 1 1 1 1 1 1 1 1 1 1 1 1 1 1 1 1 1 1 1 1 1 1 1 
1 1 1 1 1 1 1 1 1 1 1 1 1 1 1 1 1 1 1 1 1 1 1 1 1 1 1 1 1 1 
1 1 1 1 1 1 1 1 1 1 1 1 1 1 1 1 1 1 1 1 1 1 1 1 1 1 1 1 1 1 
1 1 1 1 1 1 1 1 1 1 1 1 1 1 1 1 1 1 1 1 1 1 1 1 1 1 1 1 1 1 
1 1 1 1 1 1 1 1 1 1 1 1 1 1 1 1 1 1 1 1 1 1 1 1 1 1 1 1 1 1 
1 1 1 1 1 1 1 1 1 1 1 1 1 1 1 1 1 1 1 1 1 1 1 1 1 1 1 1 1 1 
1 1 1 1 1 1 1 1 1 1 1 1 1 1 1 1 1 1 1 1 1 1 1 1 1 1 1 1 1 1 
1 1 1 1 1 1 1 1 1 1 1 1 1 1 1 1 1 1 1 1 1 1 1 1 1 1 1 1 1 1 
1 1 1 1 1 1 1 1 1 1 1 1 1 1 1 1 1 1 1 1 1 1 1 1 1 1 1 1 1 1 
1 1 1 1 1 1 1 1 1 1 1 1 1 1 1 1 1 1 1 1 1 1 1 1 1 1 1 1 1 1 
1 1 1 1 1 1 1 1 1 1 1 1 1 1 1 1 1 1 1 1 1 1 1 1 1 1 1 1 1 1 
1 1 1 1 1 1 1 1 1 1 1 1 1 1 1 1 1 1 1 1 1 1 1 1 1 1 1 1 1 1 
1 1 1 1 1 1 1 1 1 1 1 1 1 1 1 1 1 1 1 1 1 1 1 1 1 1 1 1 1 1 
1 1 1 1 1 1 1 1 1 1 1 1 1 1 1 1 1 1 1 1 1 1 1 1 1 1 1 1 1 1 
1 1 1 1 1 1 1 1 1 1 1 1 1 1 1 1 1 1 1 1 1 1 1 1 1 1 1 1 1 1 
1 1 1 1 1 1 1 1 1 1 1 1 1 1 1 1 1 1 1 1 1 1 1 1 1 1 1 1 1 1 
1 1 1 1 1 1 1 1 1 1 1 1 1 1 1 1 1 1 1 1 1 1 1 1 1 1 1 1 1 1 
1 1 1 1 1 1 1 1 1 1 1 1 1 1 1 1 1 1 1 1 1 1 1 1 1 1 1 1 1 1 
1 1 1 1 1 1 1 1 1 1 1 1 1 1 1 1 1 1 1 1 1 1 1 1 1 1 1 1 1 1 
1 1 1 1 1 1 1 1 1 1 1 1 1 1 1 1 1 1 1 1 1 1 1 1 1 1 1 1 1 1 
1 1 1 1 1 1 1 1 1 1 1 1 1 1 1 1 1 1 1 1 1 1 1 1 1 1 1 1 1 1 
1 1 1 1 1 1 1 1 1 1 1 1 1 1 1 1 1 1 1 1 1 1 1 1 1 1 1 1 1 1 
1 1 1 1 1 1 1 1 1 1 1 1 1 1 1 1 1 1 1 1 1 1 1 1 1 1 1 

SCALARS sensitivity_number float
LOOKUP_TABLE default
3.5547415582603036e-08 1.4875499743274265e-07 1.8319658406764556e-07 8.938455259444166e-05 4.746017212646059e-05 1.6458786785275413e-14 
0.00015426087343206013 3.950946466618909e-05 6.450875569164157e-05 7.093922752940741e-08 2.9376470526006757e-15 3.067388919327446e-16 
4.766718749654071e-14 9.33952024070301e-15 8.054694538089633e-06 3.214153432952604e-14 5.568099805523459e-05 1.2020422611529636e-07 
1.03908758228796e-07 7.059001655717652e-08 4.930843064194947e-05 2.0979517570928128e-07 5.693381782762895e-16 0.00018910549336319824 
0.00015933712749879666 0.0001819475626714197 0.00016101110716805687 1.2099024333201728e-06 1.0710732034152623e-07 1.651133587461355e-14 
1.783780255620865e-15 8.693293188434118e-06 6.062918034828268e-06 1.524799201858009e-15 7.809621643520415e-14 1.995289053931808e-05 
2.8512555324302755e-15 0.0001644712119040739 0.0002053103264612728 2.1264554779728475e-07 1.5028915303547044e-15 1.5534170703599504e-14 
0.00011744586481989038 4.5344046005319134e-14 7.357318415601525e-05 7.469518224754316e-07 1.059711042508882e-13 3.350572134670714e-05 
7.474267828926237e-14 1.3384975485019815e-15 6.20152785412949e-05 1.8894736306948445e-15 3.2686507131037656e-07 7.735381674875378e-16 
6.585236083014217e-05 8.1011766182394e-07 5.5068969735403884e-05 1.2936632557448958e-14 7.694181667540276e-14 8.044312510986953e-15 
2.223449010264598e-14 9.414313493259009e-08 1.169412321278195e-05 5.287558597155566e-05 0.00013356344133589479 1.4623362917447042e-05 
5.979512280309491e-15 1.114909993469641e-06 4.1225795144751373e-14 9.820898559127221e-08 1.7094926632555309e-16 6.8926354384156e-14 
1.2065024021489205e-13 1.0111978672644223e-14 5.095353338606358e-06 1.9576810865396922e-05 7.537306638737326e-08 3.60376733811318e-14 
1.0962226549434282e-07 6.721725945667679e-08 3.772054965084512e-05 4.971613779492222e-05 0.00010955131763548395 3.373247564693494e-05 
5.2933009253850334e-05 5.376104595395823e-05 2.1761833881317804e-05 1.634489912217545e-15 1.4344583748949943e-15 1.6261712892099743e-06 
3.426067091329363e-15 3.995304891636288e-06 0.00015334613547455663 0.000154367870973566 1.4657698468575843e-07 1.183115438267089e-06 
1.196167570479241e-05 1.2757709317910392e-07 3.2550522960464585e-07 1.6304634401600004e-13 2.3840125311420448e-15 2.970116324227986e-07 
1.4362851534286544e-13 6.126407152598959e-05 1.4138578182979752e-14 8.589156040050356e-05 3.2999711398582824e-05 6.359564082695117e-15 
5.392751442766331e-16 2.071687016057912e-06 3.7987015359043716e-05 2.934082603665331e-16 6.304070533618953e-05 8.00322524136653e-15 
1.1155246258254903e-08 3.7090974295416094e-15 4.3814542283504274e-15 5.293641814483497e-16 1.4352286448665465e-14 5.602610268134648e-05 
8.519973669098205e-14 2.7311663118172326e-15 4.6249868246748014e-14 5.037456496538127e-05 1.0368761183302113e-13 7.982478305299827e-09 
0.0001918185299970605 3.421517430145643e-16 2.625527908302258e-08 2.3724479801034616e-15 4.337650108721823e-16 2.4722823527761033e-15 
2.0214708891366357e-09 9.777694093701486e-14 2.8007892223581497e-05 9.680114589681613e-06 9.677922929925151e-15 7.277087673432288e-06 
2.9644435267890435e-06 5.972822908921579e-06 7.26868692439648e-06 5.391807587305284e-06 5.7767445574880865e-06 8.075448513237532e-05 
3.182453162290059e-05 1.0197846770839551e-14 5.393868725635244e-05 2.4860548344643403e-05 1.1979903591488673e-14 2.1552468932962309e-16 
9.618809297771936e-15 9.91588337953535e-06 5.631751383458866e-06 3.62358372130465e-05 6.598921672623611e-16 3.4699395974533467e-16 
1.8571106823021703e-08 6.098582890048603e-06 5.087861214813394e-06 3.937290996073493e-05 5.528902281863496e-05 6.305384870838849e-16 
5.634720480941784e-05 5.827498249854885e-05 0.00013676750421992735 1.1037996878946985e-13 4.960055754436913e-16 5.181462443458652e-06 
4.0987385766386065e-16 2.3948743909493132e-06 4.715724765477683e-16 4.746548464378819e-05 1.8475208110458307e-15 1.3357257528738803e-07 
9.739347795126801e-16 2.129962479982981e-16 5.851053980875736e-05 1.6051188988199737e-15 1.1120272628631478e-08 2.2870727933796187e-16 
1.0916652802004139e-05 5.311215457882188e-05 1.3743816741325697e-06 2.8820661861137724e-07 1.6967242192268724e-05 1.311295762332014e-07 
0.00010460663973090678 0.0001259594963178448 1.382822302510909e-13 6.282330510700566e-05 5.47865536507141e-07 3.2680501411246465e-14 
6.44218930451766e-15 3.925489911962498e-07 2.2113025242197647e-07 1.3559645777762526e-14 7.556269249375453e-14 4.8502699625389925e-06 
1.3878688416366662e-14 2.1726193878851495e-07 1.9057182492350293e-16 1.946839548277404e-07 5.8181415368498397e-05 4.029010419882188e-05 
2.7389169540660986e-16 4.222869876135228e-14 1.0146788553478629e-05 0.00018325812473398147 5.766845259805383e-05 2.2882300851540873e-05 
3.6646301338670623e-16 0.0001842377390739502 2.5327051064732165e-05 1.6360052979396741e-07 5.835954726125877e-05 1.5677251472999694e-14 
2.6322434826771357e-05 9.642130602009971e-14 6.388036676871629e-05 1.3416279810603877e-14 3.2611285523239713e-07 0.00019699500846993018 
4.328387808297208e-15 1.0849384071705322e-06 1.5791996727671842e-15 1.2228452901609465e-13 4.933512809163382e-09 1.875395283669421e-07 
2.5199504944884974e-14 3.1821825920530637e-15 3.668757938810047e-08 3.592171859323319e-06 1.0832841768319682e-07 1.0319689864548746e-07 
7.657872857357428e-15 2.5352221122750705e-07 5.384829537667052e-16 4.1463323112989845e-16 0.00012062655960083856 6.200714454266875e-09 
3.364323452758773e-05 0.00018284208431430156 4.360916425200938e-08 6.85959836719953e-05 4.1847699230913494e-14 4.089461958893995e-06 
9.840373378215944e-05 5.496996383209317e-05 8.606762839136634e-05 4.361914575941499e-07 2.9190698350741735e-07 1.9143606072269855e-16 
0.00017179473832663105 0.00010617150205090983 1.88843872181004e-05 5.678121812780858e-07 0.00017615315742176493 4.1581233662335205e-07 
9.173360847605502e-05 1.7234032673543457e-07 1.6908079806420862e-06 1.000926270393607e-06 3.777545141531893e-05 3.9080200152556926e-07 
5.576901371758218e-07 8.019600418053008e-05 0.0001338361473936231 0.0001087770231314587 5.5929805078116666e-14 8.026959991016283e-07 
2.087033275182111e-15 0.00011929710825807081 2.114440331981611e-06 1.3830072732382425e-07 3.241803072854928e-15 1.8668747678791398e-07 
1.6552046699934703e-07 6.122717556629344e-05 3.544427523142045e-16 1.3057734511655581e-05 7.0572901499481855e-06 1.9697383611633716e-16 
1.1935485303270063e-07 9.424390006044585e-07 5.5014038331892983e-05 6.014868105374454e-05 1.5159755566792656e-14 4.62972472530752e-05 
4.570534404178271e-15 2.9471075870589684e-07 5.7678926752185524e-05 6.483861929689627e-08 4.015725379613961e-15 0.00015695781888650182 
2.2356550122911337e-05 4.925590466301807e-08 4.3598609125220815e-06 6.209845858328316e-09 4.089627647493773e-16 1.6733328714249537e-06 
4.671866411371614e-16 1.1773354844172136e-06 3.136003655159719e-14 1.1132049781366324e-06 3.071261391601191e-16 4.268950248213011e-05 
9.114577791439761e-07 3.02862637940981e-15 7.136824144004283e-14 4.6055247098174764e-15 4.4050304474833713e-07 1.810895942911176e-06 
1.0203292425267958e-14 1.3799914163761545e-06 8.441417428539229e-05 8.652331079160178e-07 1.795132071622368e-05 1.0255033879203255e-06 
2.4967039580319118e-05 4.754390880895917e-15 2.5699550854764852e-06 1.7995393600567918e-16 3.365017119388529e-14 1.982421113618625e-08 
3.005947091003598e-07 4.2758948066646797e-07 6.951372432738376e-07 2.1180303688101515e-07 1.0627397024444125e-07 3.2670811334103693e-06 
1.7347502421635856e-16 1.1218742553279439e-05 4.160072199537874e-15 3.862850883180705e-05 3.031478566706808e-15 4.420803937390475e-05 
1.8804394128910398e-07 1.995561945805431e-05 1.634287468979564e-05 2.5242458005923414e-15 1.6679048282612663e-05 7.269164189751513e-08 
4.858445962782009e-16 4.110026166032032e-06 6.237717016196674e-05 4.6959753676814404e-07 3.6718547394615997e-06 5.759107381393742e-05 
0.00013929882560086599 8.257117559092028e-07 0.0001865102105933046 5.763060195276533e-14 1.9572672749905366e-05 0.00017275129623768256 
5.8334920963585864e-05 1.3009926392159343e-14 0.0001589043522501234 5.071643971293601e-16 1.1629749312536429e-06 0.00018021254101501237 
2.650360239332674e-16 4.5699584142927373e-07 0.00019471460297884849 7.403908503865882e-16 8.563285141076197e-08 6.149532163165621e-08 
2.9046611531432626e-05 2.2758452489615866e-16 4.056312210311041e-09 9.511701851944785e-16 2.193956608870513e-16 2.2390475309611683e-16 
0.0001622193505129379 0.00012694017393282542 1.558548335007482e-15 7.168260862386436e-05 3.9958228938067396e-15 1.760444691622513e-07 
9.414516577929406e-08 8.024280022325702e-16 1.3157302096621422e-07 2.1714676186297168e-07 1.1420764905157206e-15 5.497875371862781e-07 
0.00010235663193202679 1.5595062522254484e-08 7.864795585499077e-08 7.829908207884799e-08 2.4930795033496733e-16 3.5396719041965786e-08 
0.0001957381315744684 4.999328607606264e-14 2.576944107417441e-05 4.466729998977365e-05 6.23795958619275e-07 2.061551274020995e-16 
6.705302749083912e-05 1.2231425508129014e-15 1.4068488487721321e-06 5.7482262847957615e-06 2.1537055207553587e-16 2.640662623128493e-15 
9.221640940722949e-16 1.0191701074109997e-15 7.73062177030315e-05 4.205370373151178e-05 1.2573311474887633e-14 4.142417623758586e-05 
5.332578821253732e-15 2.118299728493072e-05 6.033441303258489e-07 3.817531691815612e-07 3.963462082614937e-15 9.85019306585496e-08 
3.701413970320833e-05 4.4201543374898776e-15 2.713433143990319e-15 4.3331736516750646e-05 7.78138634847686e-14 4.698566581889128e-05 
1.1132846754243867e-14 4.1338976476307686e-05 2.765045151791373e-14 7.270102117963582e-05 4.495249009684452e-05 3.0369301982870435e-07 
7.250675333100355e-07 7.326966966713932e-08 3.480808636001549e-07 0.00020419334677913685 0.00016182455709622576 1.0352270894438485e-15 
1.2694583016135618e-06 9.385137907559891e-07 9.370327857755506e-05 0.00018254095980307553 2.2251759149106117e-05 2.77489514922306e-06 
7.523122168532095e-05 0.00019383799653135378 0.00021556256359156343 0.00015601351273519302 3.587995435747912e-15 2.0524931482857212e-05 
7.834887898039695e-06 3.4348364157321433e-06 2.2678377181610215e-07 1.9099079380966722e-16 6.892743072484907e-07 2.0790411253620255e-14 
6.151074268522847e-05 2.0632770127338643e-16 2.284843644668014e-16 1.054212861538507e-05 1.1075049798873904e-07 7.899008549894829e-14 
6.59824600851558e-05 3.1252573610863864e-07 4.741844336115537e-14 4.9464577130848184e-05 5.034686997153664e-16 3.9098801754522647e-05 
5.936648605911674e-15 0.00015691499085126795 0.00017390748870399757 1.5313847401111813e-07 2.733841000599081e-16 3.0694707385743816e-15 
1.519346677324264e-15 2.0366984833254323e-05 3.8986596390087e-16 7.157724137343858e-05 5.427502321259774e-05 5.79191567366108e-05 
6.18489971557063e-05 4.0994239598697765e-07 1.8741507301785664e-06 2.6982863715150017e-16 1.7659593836950732e-14 9.664364943284032e-14 
0.00017827790184505844 5.075233047493543e-05 0.0002082579551713328 7.975357822877494e-06 1.2984481906595187e-06 2.4621626245844084e-07 
7.019483400936639e-07 5.431150047462719e-07 4.40984889002244e-06 5.318832916249539e-16 1.2200093789500325e-13 3.957457121820253e-08 
1.618581354132504e-08 6.289565277853279e-06 5.647591402600581e-06 1.0135015692360707e-05 4.749799865902719e-05 3.2482915241252678e-06 
4.220049540116773e-05 7.432800439157351e-08 1.6464992996384626e-09 2.2797296516021313e-08 7.76750731630801e-14 2.4584492379536043e-14 
0.0001704241911796693 1.1419933738330907e-14 3.7001795727408166e-14 3.122376936516572e-15 2.0850155007435725e-15 1.5779494474896366e-07 
3.310853970673719e-15 2.711946183556012e-16 3.2285659876083895e-16 2.510760798186341e-16 1.9533172477646174e-16 2.1878506125687882e-16 
4.522031357224012e-16 3.4169615241950933e-16 2.5404512751138e-16 1.5232659647103887e-14 1.7294169243290867e-14 1.3588468317386628e-14 
9.156082312865579e-15 4.1417908084987207e-16 1.315096598770651e-07 1.1138923956527362e-06 1.1819296137668465e-06 4.08407621148812e-08 
1.0497123486887093e-07 6.488175915272863e-08 1.3279876822876378e-06 1.0388268212987393e-06 4.35744591894414e-06 0.00018298335854566905 
6.901858601438067e-16 1.6303087998505466e-15 2.333742917229358e-05 1.0965206861625494e-15 1.9107095978419327e-14 2.5872100519416384e-05 
1.1252719151803698e-14 1.708193817411641e-14 1.1032636406864232e-13 6.83444186463923e-05 6.466982336480415e-05 6.192692375089766e-05 
6.389987018708301e-05 6.45987267883005e-05 2.4887739981679282e-05 1.7773661494902725e-05 3.691345887483605e-16 4.370207552000268e-09 
1.2792133516411964e-13 0.00017181455597312114 0.00017874089398736646 0.00019474370862281566 5.164508864840897e-05 5.5135982544935e-05 
5.241758227668902e-05 4.228236675304735e-05 4.1161788320571725e-05 4.6102105918779525e-05 1.1443349988785852e-15 5.1925601708783e-14 
1.5902364357255268e-15 4.276342935431794e-08 8.431499049969962e-16 2.7377141055777572e-06 1.7847543213559136e-06 3.3663523312718748e-06 
0.00015270068576658623 0.00017474678472170188 0.0001852773371730425 0.00019594309959929996 0.00013065517318654174 2.318868624270305e-06 
1.1432583835778893e-05 6.592075222665957e-07 2.7534475379631496e-07 1.8297579363895867e-07 6.111162538299954e-05 2.07673557923713e-05 
3.2898642904587344e-05 7.224425070102612e-05 1.783378135169069e-05 8.259857972884068e-14 6.113752307599283e-16 3.8146498937095687e-16 
2.939086191466602e-16 3.0807076157921237e-16 1.4005312324074395e-05 2.7733128152750243e-05 3.757584645233172e-05 5.3783169934697454e-05 
6.756014122328582e-05 1.3741173584712552e-05 4.921922989393674e-16 1.612286189642048e-16 2.8965027653684935e-06 7.409999099522875e-05 
2.723122474642648e-05 2.379732537180379e-07 9.064991740352056e-05 8.316011582534702e-08 1.5748130124161e-06 2.284323508802459e-16 
1.0965301638125293e-13 1.7787018234583263e-06 1.9814393646183358e-07 2.620299287154298e-08 1.7603957993577375e-07 1.0198407727577222e-07 
2.353866719528566e-14 2.1768792542332286e-06 3.17994608003299e-14 1.838253774050447e-14 2.5334968660537726e-15 1.1483095500903697e-14 
5.429677470635935e-15 3.3698998952287754e-15 6.349521799966047e-05 0.00012516691642758246 2.2589677956032815e-08 6.0213002369623135e-05 
6.254425378924337e-05 8.31166269959755e-07 8.711422286135608e-07 5.389955146567488e-07 2.4090505876043846e-05 2.8176047670758234e-06 
4.983853574319407e-14 3.855884947450276e-14 2.5212343403341718e-05 4.479415742750526e-14 0.00015653904548536116 3.197758987200295e-05 
1.2713183724605213e-13 1.0787190113916253e-05 1.7574107852690718e-05 8.406253046739311e-05 1.0773093263837838e-06 1.4589280780966635e-06 
1.17513849390834e-06 1.7262884358436073e-06 1.7856956637677646e-05 1.3730866592050292e-05 2.7518095145462346e-07 2.357109208467769e-07 
5.626988507546583e-15 4.384326634365482e-15 3.997603133595385e-15 6.802505999636988e-15 1.6130635772238752e-05 1.353280957614499e-05 
6.276324739581981e-05 6.756965556142549e-07 4.360583869166061e-05 5.3782367835305395e-05 5.801370320323159e-16 4.101573785010174e-15 
1.2711265338749501e-08 5.4364381686386785e-05 0.0001616604712452148 0.00016479755723303256 0.0001812388902591697 1.9533301818214334e-15 
5.714765022091224e-05 5.528194676966635e-05 5.5757721588153015e-05 5.4141389941905e-05 1.8967524075687976e-15 1.1055869250419678e-15 
2.7680439531888463e-15 6.978604678022227e-15 2.4228515641656337e-15 1.4377796239723376e-07 1.7045062783129462e-07 6.39970851447269e-08 
1.241246388963806e-07 4.74086040820207e-08 1.894360177400225e-07 4.527911115641573e-06 2.5775735524245216e-16 1.441795681543897e-06 
2.2430215825843245e-06 4.322237179811029e-06 1.067078382902478e-06 1.5614543960619432e-15 0.0001035454854997701 9.299874891012168e-05 
0.00013047925569552811 4.9444884663426665e-05 0.0001583042161144298 3.198337695004277e-05 6.0833121839908265e-05 6.220020716260208e-05 
0.0001278232111975092 3.3325645446790966e-06 1.074832254737193e-06 1.2463726020331778e-06 8.803381304083854e-07 3.76345507714267e-05 
1.9233883389002296e-05 4.300336758578372e-05 4.012575302348362e-05 4.5593677330412544e-05 3.277411828949447e-05 1.6661198068696694e-14 
1.6426819394466047e-14 1.3828640214519903e-14 3.015065860958998e-14 1.9918402442337577e-14 3.149715716959822e-16 2.220537836502034e-06 
2.3509119974523296e-06 4.88370713750649e-05 6.140035989725554e-16 9.177558489997896e-16 1.157837403088977e-15 4.0617267863913606e-14 
1.6382590612957106e-14 0.00014444211374282413 7.747923304347316e-05 0.00017863577093789657 8.087671389815307e-05 0.00017238231400772136 
0.00016984937896691616 3.3691848874449975e-16 1.1612890876017873e-15 6.238460147769456e-16 7.336633299138341e-16 1.353181334766666e-15 
1.5988357565522646e-06 5.507454036844745e-15 8.528873801985367e-15 1.2269089304718181e-14 8.516611539487038e-06 2.093483321990208e-07 
6.021027242547679e-05 8.957430257583874e-05 3.3722716301890843e-14 1.896709633842984e-14 1.4233949798415193e-07 1.5473321626270285e-07 