
                        S T E P       1


                                INCREMENT     1


 stresses (elem, integ.pnt.,sxx,syy,szz,sxy,sxz,syz) for set SOLIDMATERIALELEMENTGEOMETRY2D and time  0.1000000E+01

       261   1  5.910485E+01 -1.025316E-01 -3.445216E-02  1.685140E-01 -2.395618E-03 -2.413410E-03 _shell_0000000261   
       261   2  5.906001E+01 -8.658466E-02 -6.899322E-03  1.674397E-01 -2.400626E-03  2.413172E-03 _shell_0000000261   
       261   3  5.644012E+01 -9.602526E-02  1.703833E-02  1.635082E-01  2.398384E-03 -2.410918E-03 _shell_0000000261   
       261   4  5.638441E+01 -9.275548E-02  1.332369E-02  1.642993E-01  2.389217E-03  2.406961E-03 _shell_0000000261   
       261   5  5.910485E+01 -1.025316E-01 -3.445216E-02  1.685140E-01  2.395618E-03  2.413410E-03 _shell_0000000261   
       261   6  5.906001E+01 -8.658466E-02 -6.899322E-03  1.674397E-01  2.400626E-03 -2.413172E-03 _shell_0000000261   
       261   7  5.644012E+01 -9.602526E-02  1.703833E-02  1.635082E-01 -2.398384E-03  2.410918E-03 _shell_0000000261   
       261   8  5.638441E+01 -9.275548E-02  1.332369E-02  1.642993E-01 -2.389217E-03 -2.406961E-03 _shell_0000000261   
       262   1  5.426475E+01 -2.610107E-01 -5.797292E-02  4.271621E-01 -3.059566E-04 -3.062911E-04 _shell_0000000262   
       262   2  5.433302E+01 -1.833595E-01  2.133484E-02  4.287489E-01 -3.094889E-04  3.097858E-04 _shell_0000000262   
       262   3  5.168541E+01 -2.592979E-01 -1.582510E-02  4.148306E-01  3.095440E-04 -3.098409E-04 _shell_0000000262   
       262   4  5.174702E+01 -1.858383E-01  5.596632E-02  4.150438E-01  3.067618E-04  3.070971E-04 _shell_0000000262   
       262   5  5.426475E+01 -2.610107E-01 -5.797292E-02  4.271621E-01  3.059566E-04  3.062911E-04 _shell_0000000262   
       262   6  5.433302E+01 -1.833595E-01  2.133484E-02  4.287489E-01  3.094889E-04 -3.097858E-04 _shell_0000000262   
       262   7  5.168541E+01 -2.592979E-01 -1.582510E-02  4.148306E-01 -3.095440E-04  3.098409E-04 _shell_0000000262   
       262   8  5.174702E+01 -1.858383E-01  5.596632E-02  4.150438E-01 -3.067618E-04 -3.070971E-04 _shell_0000000262   
       263   1  4.974472E+01 -4.426338E-01 -5.705441E-02  5.632248E-01 -5.053641E-04 -5.040397E-04 _shell_0000000263   
       263   2  4.979353E+01 -3.766616E-01  4.873050E-03  5.645070E-01 -5.091278E-04  5.084174E-04 _shell_0000000263   
       263   3  4.723630E+01 -4.406996E-01  3.814619E-03  5.560097E-01  5.091967E-04 -5.084862E-04 _shell_0000000263   
       263   4  4.727846E+01 -3.795315E-01  5.623295E-02  5.562692E-01  5.063812E-04  5.050541E-04 _shell_0000000263   
       263   5  4.974472E+01 -4.426338E-01 -5.705441E-02  5.632248E-01  5.053641E-04  5.040397E-04 _shell_0000000263   
       263   6  4.979353E+01 -3.766616E-01  4.873050E-03  5.645070E-01  5.091278E-04 -5.084174E-04 _shell_0000000263   
       263   7  4.723630E+01 -4.406996E-01  3.814619E-03  5.560097E-01 -5.091967E-04  5.084862E-04 _shell_0000000263   
       263   8  4.727846E+01 -3.795315E-01  5.623295E-02  5.562692E-01 -5.063812E-04 -5.050541E-04 _shell_0000000263   
       264   1  5.411277E+01 -1.740823E-01  1.663594E-02  5.867103E-01 -1.911108E-05  1.913217E-05 _shell_0000000264   
       264   2  5.154556E+01 -1.750780E-01  5.473589E-02  5.759710E-01  1.898002E-05  1.905721E-05 _shell_0000000264   
       264   3  5.407677E+01 -2.515048E-01 -5.076538E-02  5.854501E-01 -1.894154E-05 -1.901858E-05 _shell_0000000264   
       264   4  5.151222E+01 -2.511839E-01 -1.069644E-02  5.760607E-01  1.912479E-05 -1.914589E-05 _shell_0000000264   
       264   5  5.411277E+01 -1.740823E-01  1.663594E-02  5.867103E-01  1.911109E-05 -1.913217E-05 _shell_0000000264   
       264   6  5.154556E+01 -1.750780E-01  5.473589E-02  5.759710E-01 -1.898003E-05 -1.905722E-05 _shell_0000000264   
       264   7  5.407677E+01 -2.515048E-01 -5.076538E-02  5.854501E-01  1.894154E-05  1.901857E-05 _shell_0000000264   
       264   8  5.151222E+01 -2.511839E-01 -1.069644E-02  5.760607E-01 -1.912479E-05  1.914588E-05 _shell_0000000264   
       265   1  4.935729E+01 -4.146913E-01 -5.927450E-02  9.768756E-01 -3.683888E-04 -3.689024E-04 _shell_0000000265   
       265   2  4.938751E+01 -3.286103E-01  1.410178E-02  9.778528E-01 -3.699305E-04  3.698480E-04 _shell_0000000265   
       265   3  4.687113E+01 -4.133142E-01 -7.209225E-03  9.733458E-01  3.699708E-04 -3.698883E-04 _shell_0000000265   
       265   4  4.689692E+01 -3.305183E-01  5.951807E-02  9.736710E-01  3.688579E-04  3.693722E-04 _shell_0000000265   
       265   5  4.935729E+01 -4.146913E-01 -5.927450E-02  9.768756E-01  3.683888E-04  3.689024E-04 _shell_0000000265   
       265   6  4.938751E+01 -3.286103E-01  1.410178E-02  9.778528E-01  3.699305E-04 -3.698480E-04 _shell_0000000265   
       265   7  4.687113E+01 -4.133142E-01 -7.209225E-03  9.733458E-01 -3.699708E-04  3.698883E-04 _shell_0000000265   
       265   8  4.689692E+01 -3.305183E-01  5.951807E-02  9.736710E-01 -3.688579E-04 -3.693722E-04 _shell_0000000265   
       266   1  3.484981E+01 -6.412844E-01 -6.043942E-02  3.006539E+00 -5.410108E-04 -5.410109E-04 _shell_0000000266   
       266   2  3.485144E+01 -5.035115E-01  2.402480E-02  3.006540E+00 -5.410110E-04  5.410110E-04 _shell_0000000266   
       266   3  3.254587E+01 -6.396614E-01 -1.825832E-02  3.006539E+00  5.410110E-04 -5.410110E-04 _shell_0000000266   
       266   4  3.254425E+01 -5.051346E-01  5.863152E-02  3.006540E+00  5.410109E-04  5.410110E-04 _shell_0000000266   
       266   5  3.484981E+01 -6.412844E-01 -6.043942E-02  3.006539E+00  5.410108E-04  5.410109E-04 _shell_0000000266   
       266   6  3.485144E+01 -5.035115E-01  2.402480E-02  3.006540E+00  5.410110E-04 -5.410110E-04 _shell_0000000266   
       266   7  3.254587E+01 -6.396614E-01 -1.825832E-02  3.006539E+00 -5.410110E-04  5.410110E-04 _shell_0000000266   
       266   8  3.254425E+01 -5.051346E-01  5.863152E-02  3.006540E+00 -5.410109E-04 -5.410110E-04 _shell_0000000266   
       267   1  3.109189E+01 -7.868717E-01  1.376061E-02  3.136086E+00 -5.132336E-04  5.132334E-04 _shell_0000000267   
       267   2  2.879809E+01 -7.884117E-01  5.888819E-02  3.136085E+00  5.132329E-04  5.132333E-04 _shell_0000000267   
       267   3  3.109034E+01 -9.337322E-01 -6.061445E-02  3.136085E+00 -5.132327E-04 -5.132331E-04 _shell_0000000267   
       267   4  2.879963E+01 -9.321925E-01 -8.301121E-03  3.136084E+00  5.132336E-04 -5.132334E-04 _shell_0000000267   
       267   5  3.109189E+01 -7.868717E-01  1.376061E-02  3.136086E+00  5.132336E-04 -5.132334E-04 _shell_0000000267   
       267   6  2.879809E+01 -7.884117E-01  5.888819E-02  3.136085E+00 -5.132329E-04 -5.132333E-04 _shell_0000000267   
       267   7  3.109034E+01 -9.337322E-01 -6.061445E-02  3.136085E+00  5.132327E-04  5.132331E-04 _shell_0000000267   
       267   8  2.879963E+01 -9.321925E-01 -8.301121E-03  3.136084E+00 -5.132336E-04  5.132334E-04 _shell_0000000267   
       268   1 -1.199992E+01  1.564683E-01  2.421410E-02  4.653866E+00  4.060911E-04 -4.060911E-04 _shell_0000000268   
       268   2 -1.020462E+01  1.552500E-01  1.980819E-02  4.653866E+00 -4.060911E-04 -4.060911E-04 _shell_0000000268   
       268   3 -1.200114E+01  1.063854E-01 -2.229751E-02  4.653866E+00  4.060911E-04  4.060911E-04 _shell_0000000268   
       268   4 -1.020340E+01  1.076037E-01 -2.101814E-02  4.653866E+00 -4.060911E-04  4.060911E-04 _shell_0000000268   
       268   5 -1.199992E+01  1.564683E-01  2.421410E-02  4.653866E+00 -4.060911E-04  4.060911E-04 _shell_0000000268   
       268   6 -1.020462E+01  1.552500E-01  1.980819E-02  4.653866E+00  4.060911E-04  4.060911E-04 _shell_0000000268   
       268   7 -1.200114E+01  1.063854E-01 -2.229751E-02  4.653866E+00 -4.060911E-04 -4.060911E-04 _shell_0000000268   
       268   8 -1.020340E+01  1.076037E-01 -2.101814E-02  4.653866E+00  4.060911E-04 -4.060911E-04 _shell_0000000268   
       269   1 -1.181242E+01  1.470343E-01  2.391738E-02  4.660217E+00  4.086885E-04 -4.086885E-04 _shell_0000000269   
       269   2 -1.004159E+01  1.458082E-01  1.949030E-02  4.660217E+00 -4.086885E-04 -4.086885E-04 _shell_0000000269   
       269   3 -1.181364E+01  9.717166E-02 -2.202499E-02  4.660217E+00  4.086885E-04  4.086885E-04 _shell_0000000269   
       269   4 -1.004037E+01  9.839773E-02 -2.073044E-02  4.660217E+00 -4.086885E-04  4.086885E-04 _shell_0000000269   
       269   5 -1.181242E+01  1.470343E-01  2.391738E-02  4.660217E+00 -4.086885E-04  4.086885E-04 _shell_0000000269   
       269   6 -1.004159E+01  1.458082E-01  1.949030E-02  4.660217E+00  4.086885E-04  4.086885E-04 _shell_0000000269   
       269   7 -1.181364E+01  9.717166E-02 -2.202499E-02  4.660217E+00 -4.086885E-04 -4.086885E-04 _shell_0000000269   
       269   8 -1.004037E+01  9.839773E-02 -2.073044E-02  4.660217E+00  4.086885E-04 -4.086885E-04 _shell_0000000269   
       270   1 -8.884597E+00  1.562163E-01  1.864212E-02  4.809022E+00  4.124453E-04 -4.124453E-04 _shell_0000000270   
       270   2 -7.085284E+00  1.549790E-01  1.480515E-02  4.809022E+00 -4.124453E-04 -4.124453E-04 _shell_0000000270   
       270   3 -8.885835E+00  1.168032E-01 -1.733503E-02  4.809022E+00  4.124453E-04  4.124453E-04 _shell_0000000270   
       270   4 -7.084047E+00  1.180406E-01 -1.539777E-02  4.809022E+00 -4.124453E-04  4.124453E-04 _shell_0000000270   
       270   5 -8.884597E+00  1.562163E-01  1.864212E-02  4.809022E+00 -4.124453E-04  4.124453E-04 _shell_0000000270   
       270   6 -7.085284E+00  1.549790E-01  1.480515E-02  4.809022E+00  4.124453E-04  4.124453E-04 _shell_0000000270   
       270   7 -8.885835E+00  1.168032E-01 -1.733503E-02  4.809022E+00 -4.124453E-04 -4.124453E-04 _shell_0000000270   
       270   8 -7.084047E+00  1.180406E-01 -1.539777E-02  4.809022E+00  4.124453E-04 -4.124453E-04 _shell_0000000270   
       271   1 -8.740857E+00  1.076490E-01 -1.702997E-02  4.812968E+00  4.141249E-04  4.141249E-04 _shell_0000000271   
       271   2 -8.739614E+00  1.469307E-01  1.836048E-02  4.812968E+00  4.141249E-04 -4.141249E-04 _shell_0000000271   
       271   3 -6.964032E+00  1.088914E-01 -1.512650E-02  4.812968E+00 -4.141249E-04  4.141249E-04 _shell_0000000271   
       271   4 -6.965274E+00  1.456883E-01  1.446619E-02  4.812968E+00 -4.141249E-04 -4.141249E-04 _shell_0000000271   
       271   5 -8.740857E+00  1.076490E-01 -1.702997E-02  4.812968E+00 -4.141249E-04 -4.141249E-04 _shell_0000000271   
       271   6 -8.739614E+00  1.469307E-01  1.836048E-02  4.812968E+00 -4.141249E-04  4.141249E-04 _shell_0000000271   
       271   7 -6.964032E+00  1.088914E-01 -1.512650E-02  4.812968E+00  4.141249E-04 -4.141249E-04 _shell_0000000271   
       271   8 -6.965274E+00  1.456883E-01  1.446619E-02  4.812968E+00  4.141249E-04  4.141249E-04 _shell_0000000271   
       272   1 -8.596985E+00  1.369505E-01  1.807895E-02  4.817024E+00  4.157193E-04 -4.157193E-04 _shell_0000000272   
       272   2 -6.847591E+00  1.357033E-01  1.416494E-02  4.817024E+00 -4.157193E-04 -4.157193E-04 _shell_0000000272   
       272   3 -8.598232E+00  9.799763E-02 -1.676419E-02  4.817024E+00  4.157193E-04  4.157193E-04 _shell_0000000272   
       272   4 -6.846344E+00  9.924479E-02 -1.485813E-02  4.817024E+00 -4.157193E-04  4.157193E-04 _shell_0000000272   
       272   5 -8.596985E+00  1.369505E-01  1.807895E-02  4.817024E+00 -4.157193E-04  4.157193E-04 _shell_0000000272   
       272   6 -6.847591E+00  1.357033E-01  1.416494E-02  4.817024E+00  4.157193E-04  4.157193E-04 _shell_0000000272   
       272   7 -8.598232E+00  9.799763E-02 -1.676419E-02  4.817024E+00 -4.157193E-04 -4.157193E-04 _shell_0000000272   
       272   8 -6.846344E+00  9.924479E-02 -1.485813E-02  4.817024E+00  4.157193E-04 -4.157193E-04 _shell_0000000272   
       273   1 -2.578332E+00  1.393319E-01  6.961617E-03  4.988258E+00  4.251633E-04 -4.251633E-04 _shell_0000000273   
       273   2 -7.966957E-01  1.380564E-01  4.135213E-03  4.988258E+00 -4.251633E-04 -4.251633E-04 _shell_0000000273   
       273   3 -2.579608E+00  1.220162E-01 -6.787885E-03  4.988258E+00  4.251633E-04  4.251633E-04 _shell_0000000273   
       273   4 -7.954202E-01  1.232917E-01 -3.662003E-03  4.988258E+00 -4.251633E-04  4.251633E-04 _shell_0000000273   
       273   5 -2.578332E+00  1.393319E-01  6.961617E-03  4.988258E+00 -4.251633E-04  4.251633E-04 _shell_0000000273   
       273   6 -7.966957E-01  1.380564E-01  4.135213E-03  4.988258E+00  4.251633E-04  4.251633E-04 _shell_0000000273   
       273   7 -2.579608E+00  1.220162E-01 -6.787885E-03  4.988258E+00 -4.251633E-04 -4.251633E-04 _shell_0000000273   
       273   8 -7.954202E-01  1.232917E-01 -3.662003E-03  4.988258E+00  4.251633E-04 -4.251633E-04 _shell_0000000273   
       274   1 -1.491257E+00 -1.781959E-01 -3.507823E-02  7.405344E-01 -3.918909E-04  3.918909E-04 _shell_0000000274   
       274   2 -1.370446E+00 -1.793715E-01 -7.065923E-02  7.405344E-01  3.918909E-04  3.918909E-04 _shell_0000000274   
       274   3 -1.492433E+00 -5.320971E-02  7.829958E-02  7.405344E-01 -3.918909E-04 -3.918909E-04 _shell_0000000274   
       274   4 -1.369270E+00 -5.203404E-02  4.820505E-02  7.405344E-01  3.918909E-04 -3.918909E-04 _shell_0000000274   
       274   5 -1.491257E+00 -1.781959E-01 -3.507823E-02  7.405344E-01  3.918909E-04 -3.918909E-04 _shell_0000000274   
       274   6 -1.370446E+00 -1.793715E-01 -7.065923E-02  7.405344E-01 -3.918909E-04 -3.918909E-04 _shell_0000000274   
       274   7 -1.492433E+00 -5.320971E-02  7.829958E-02  7.405344E-01  3.918909E-04  3.918909E-04 _shell_0000000274   
       274   8 -1.369270E+00 -5.203404E-02  4.820505E-02  7.405344E-01 -3.918909E-04  3.918909E-04 _shell_0000000274   
       275   1 -9.364122E-01 -7.817073E-02  3.627287E-02  5.964705E-01  1.276954E-04 -1.276954E-04 _shell_0000000275   
       275   2 -1.060910E+00 -7.855382E-02  7.225803E-02  5.964705E-01 -1.276954E-04 -1.276954E-04 _shell_0000000275   
       275   3 -9.367953E-01 -1.840781E-01 -6.184654E-02  5.964705E-01  1.276954E-04  1.276954E-04 _shell_0000000275   
       275   4 -1.060527E+00 -1.836951E-01 -2.407365E-02  5.964705E-01 -1.276954E-04  1.276954E-04 _shell_0000000275   
       275   5 -9.364122E-01 -7.817073E-02  3.627287E-02  5.964705E-01 -1.276954E-04  1.276954E-04 _shell_0000000275   
       275   6 -1.060910E+00 -7.855382E-02  7.225803E-02  5.964705E-01  1.276954E-04  1.276954E-04 _shell_0000000275   
       275   7 -9.367953E-01 -1.840781E-01 -6.184654E-02  5.964705E-01 -1.276954E-04 -1.276954E-04 _shell_0000000275   
       275   8 -1.060527E+00 -1.836951E-01 -2.407365E-02  5.964705E-01  1.276954E-04 -1.276954E-04 _shell_0000000275   
       276   1 -1.620629E+00 -2.156006E-01  3.673085E-02  1.201090E+00  3.648468E-04 -3.648468E-04 _shell_0000000276   
       276   2 -1.656799E+00 -2.166951E-01  8.275639E-02  1.201090E+00 -3.648468E-04 -3.648468E-04 _shell_0000000276   
       276   3 -1.621723E+00 -3.510654E-01 -7.759096E-02  1.201090E+00  3.648468E-04  3.648468E-04 _shell_0000000276   
       276   4 -1.655705E+00 -3.499708E-01 -2.645756E-02  1.201090E+00 -3.648468E-04  3.648468E-04 _shell_0000000276   
       276   5 -1.620629E+00 -2.156006E-01  3.673085E-02  1.201090E+00 -3.648468E-04  3.648468E-04 _shell_0000000276   
       276   6 -1.656799E+00 -2.166951E-01  8.275639E-02  1.201090E+00  3.648468E-04  3.648468E-04 _shell_0000000276   
       276   7 -1.621723E+00 -3.510654E-01 -7.759096E-02  1.201090E+00 -3.648468E-04 -3.648468E-04 _shell_0000000276   
       276   8 -1.655705E+00 -3.499708E-01 -2.645756E-02  1.201090E+00  3.648468E-04 -3.648468E-04 _shell_0000000276   
       277   1 -1.198400E+00 -3.763969E-01 -7.228372E-02  9.910555E-01  1.454149E-04  1.454149E-04 _shell_0000000277   
       277   2 -1.197964E+00 -2.600477E-01  2.661651E-02  9.910555E-01  1.454149E-04 -1.454149E-04 _shell_0000000277   
       277   3 -1.230337E+00 -3.759607E-01 -1.727953E-02  9.910555E-01 -1.454149E-04  1.454149E-04 _shell_0000000277   
       277   4 -1.230773E+00 -2.604840E-01  7.958489E-02  9.910555E-01 -1.454149E-04 -1.454149E-04 _shell_0000000277   
       277   5 -1.198400E+00 -3.763969E-01 -7.228372E-02  9.910555E-01 -1.454149E-04 -1.454149E-04 _shell_0000000277   
       277   6 -1.197964E+00 -2.600477E-01  2.661651E-02  9.910555E-01 -1.454149E-04  1.454149E-04 _shell_0000000277   
       277   7 -1.230337E+00 -3.759607E-01 -1.727953E-02  9.910555E-01  1.454149E-04 -1.454149E-04 _shell_0000000277   
       277   8 -1.230773E+00 -2.604840E-01  7.958489E-02  9.910555E-01  1.454149E-04  1.454149E-04 _shell_0000000277   
       278   1  3.221925E+01 -5.465311E-01 -2.305642E-02  3.149437E+00  5.576120E-04 -5.576120E-04 _shell_0000000278   
       278   2  3.451091E+01 -5.482039E-01 -5.912674E-02  3.149437E+00 -5.576120E-04 -5.576120E-04 _shell_0000000278   
       278   3  3.221757E+01 -4.123269E-01  5.681528E-02  3.149437E+00  5.576120E-04  5.576120E-04 _shell_0000000278   
       278   4  3.451259E+01 -4.106540E-01  2.855150E-02  3.149437E+00 -5.576120E-04  5.576120E-04 _shell_0000000278   
       278   5  3.221925E+01 -5.465311E-01 -2.305642E-02  3.149437E+00 -5.576120E-04  5.576120E-04 _shell_0000000278   
       278   6  3.451091E+01 -5.482039E-01 -5.912674E-02  3.149437E+00  5.576120E-04  5.576120E-04 _shell_0000000278   
       278   7  3.221757E+01 -4.123269E-01  5.681528E-02  3.149437E+00 -5.576120E-04 -5.576120E-04 _shell_0000000278   
       278   8  3.451259E+01 -4.106540E-01  2.855150E-02  3.149437E+00  5.576120E-04 -5.576120E-04 _shell_0000000278   
       279   1  3.048885E+01 -5.425509E-01  2.314189E-02  3.472012E+00 -5.491535E-04  5.491535E-04 _shell_0000000279   
       279   2  2.821143E+01 -5.441984E-01  5.377704E-02  3.472012E+00  5.491535E-04  5.491535E-04 _shell_0000000279   
       279   3  3.048720E+01 -6.868491E-01 -5.654119E-02  3.472012E+00 -5.491535E-04 -5.491535E-04 _shell_0000000279   
       279   4  2.821308E+01 -6.852017E-01 -1.821788E-02  3.472012E+00  5.491535E-04 -5.491535E-04 _shell_0000000279   
       279   5  3.048885E+01 -5.425509E-01  2.314189E-02  3.472012E+00  5.491535E-04 -5.491535E-04 _shell_0000000279   
       279   6  2.821143E+01 -5.441984E-01  5.377704E-02  3.472012E+00 -5.491535E-04 -5.491535E-04 _shell_0000000279   
       279   7  3.048720E+01 -6.868491E-01 -5.654119E-02  3.472012E+00  5.491535E-04  5.491535E-04 _shell_0000000279   
       279   8  2.821308E+01 -6.852017E-01 -1.821788E-02  3.472012E+00 -5.491535E-04  5.491535E-04 _shell_0000000279   
       280   1  3.079452E+01 -8.074730E-01 -5.864985E-02  3.318464E+00 -5.339112E-04 -5.339113E-04 _shell_0000000280   
       280   2  3.079613E+01 -6.608713E-01  1.873730E-02  3.318464E+00 -5.339114E-04  5.339114E-04 _shell_0000000280   
       280   3  2.851075E+01 -8.058713E-01 -1.356066E-02  3.318464E+00  5.339114E-04 -5.339114E-04 _shell_0000000280   
       280   4  2.850915E+01 -6.624731E-01  5.635169E-02  3.318464E+00  5.339113E-04  5.339113E-04 _shell_0000000280   
       280   5  3.079452E+01 -8.074730E-01 -5.864985E-02  3.318464E+00  5.339112E-04  5.339113E-04 _shell_0000000280   
       280   6  3.079613E+01 -6.608713E-01  1.873730E-02  3.318464E+00  5.339114E-04 -5.339114E-04 _shell_0000000280   
       280   7  2.851075E+01 -8.058713E-01 -1.356066E-02  3.318464E+00 -5.339114E-04  5.339114E-04 _shell_0000000280   
       280   8  2.850915E+01 -6.624731E-01  5.635169E-02  3.318464E+00 -5.339113E-04 -5.339113E-04 _shell_0000000280   
       281   1  3.137320E+01 -9.181495E-01  8.218807E-03  2.923169E+00 -4.850439E-04  4.850429E-04 _shell_0000000281   
       281   2  2.907523E+01 -9.196059E-01  6.125862E-02  2.923163E+00  4.850411E-04  4.850424E-04 _shell_0000000281   
       281   3  3.137171E+01 -1.062764E+00 -6.230702E-02  2.923166E+00 -4.850404E-04 -4.850417E-04 _shell_0000000281   
       281   4  2.907666E+01 -1.061308E+00 -2.474520E-03  2.923161E+00  4.850438E-04 -4.850427E-04 _shell_0000000281   
       281   5  3.137320E+01 -9.181495E-01  8.218807E-03  2.923169E+00  4.850439E-04 -4.850429E-04 _shell_0000000281   
       281   6  2.907523E+01 -9.196059E-01  6.125862E-02  2.923163E+00 -4.850411E-04 -4.850424E-04 _shell_0000000281   
       281   7  3.137171E+01 -1.062764E+00 -6.230702E-02  2.923166E+00  4.850404E-04  4.850417E-04 _shell_0000000281   
       281   8  2.907666E+01 -1.061308E+00 -2.474520E-03  2.923161E+00 -4.850438E-04  4.850427E-04 _shell_0000000281   
       282   1  2.449882E+01 -8.286708E-01  5.394082E-02  3.603630E+00  5.326817E-04  5.326817E-04 _shell_0000000282   
       282   2  2.450042E+01 -9.833053E-01 -9.743354E-03  3.603630E+00  5.326818E-04 -5.326817E-04 _shell_0000000282   
       282   3  2.676991E+01 -8.270728E-01  1.433014E-02  3.603630E+00 -5.326818E-04  5.326817E-04 _shell_0000000282   
       282   4  2.676832E+01 -9.849033E-01 -5.681161E-02  3.603630E+00 -5.326817E-04 -5.326817E-04 _shell_0000000282   
       282   5  2.449882E+01 -8.286708E-01  5.394082E-02  3.603630E+00 -5.326817E-04 -5.326817E-04 _shell_0000000282   
       282   6  2.450042E+01 -9.833053E-01 -9.743354E-03  3.603630E+00 -5.326818E-04  5.326817E-04 _shell_0000000282   
       282   7  2.676991E+01 -8.270728E-01  1.433014E-02  3.603630E+00  5.326818E-04 -5.326817E-04 _shell_0000000282   
       282   8  2.676832E+01 -9.849033E-01 -5.681161E-02  3.603630E+00  5.326817E-04  5.326817E-04 _shell_0000000282   
       283   1  2.704127E+01 -9.832562E-01  9.492386E-03  3.411731E+00 -5.138905E-04  5.138904E-04 _shell_0000000283   
       283   2  2.476583E+01 -9.847980E-01  5.733963E-02  3.411730E+00  5.138900E-04  5.138903E-04 _shell_0000000283   
       283   3  2.703972E+01 -1.143530E+00 -5.965787E-02  3.411731E+00 -5.138899E-04 -5.138903E-04 _shell_0000000283   
       283   4  2.476737E+01 -1.141989E+00 -4.616071E-03  3.411730E+00  5.138905E-04 -5.138904E-04 _shell_0000000283   
       283   5  2.704127E+01 -9.832562E-01  9.492386E-03  3.411731E+00  5.138905E-04 -5.138903E-04 _shell_0000000283   
       283   6  2.476583E+01 -9.847980E-01  5.733963E-02  3.411730E+00 -5.138900E-04 -5.138903E-04 _shell_0000000283   
       283   7  2.703972E+01 -1.143530E+00 -5.965787E-02  3.411731E+00  5.138899E-04  5.138903E-04 _shell_0000000283   
       283   8  2.476737E+01 -1.141989E+00 -4.616071E-03  3.411730E+00 -5.138905E-04  5.138904E-04 _shell_0000000283   
       284   1  2.301685E+01 -1.187257E+00  6.107165E-03  3.667736E+00 -5.212458E-04  5.212456E-04 _shell_0000000284   
       284   2  2.075487E+01 -1.188821E+00  5.556380E-02  3.667736E+00  5.212455E-04  5.212456E-04 _shell_0000000284   
       284   3  2.301528E+01 -1.363553E+00 -5.857217E-02  3.667736E+00 -5.212453E-04 -5.212455E-04 _shell_0000000284   
       284   4  2.075644E+01 -1.361989E+00 -1.817712E-03  3.667735E+00  5.212457E-04 -5.212456E-04 _shell_0000000284   
       284   5  2.301685E+01 -1.187257E+00  6.107165E-03  3.667736E+00  5.212458E-04 -5.212456E-04 _shell_0000000284   
       284   6  2.075487E+01 -1.188821E+00  5.556380E-02  3.667736E+00 -5.212455E-04 -5.212456E-04 _shell_0000000284   
       284   7  2.301528E+01 -1.363553E+00 -5.857217E-02  3.667736E+00  5.212453E-04  5.212455E-04 _shell_0000000284   
       284   8  2.075644E+01 -1.361989E+00 -1.817712E-03  3.667735E+00 -5.212457E-04  5.212456E-04 _shell_0000000284   
       285   1  2.251380E+01 -8.221219E-01  1.471339E-02  4.027888E+00 -5.473340E-04  5.473339E-04 _shell_0000000285   
       285   2  2.025988E+01 -8.237639E-01  4.712747E-02  4.027888E+00  5.473339E-04  5.473339E-04 _shell_0000000285   
       285   3  2.251216E+01 -9.857194E-01 -5.104140E-02  4.027888E+00 -5.473339E-04 -5.473339E-04 _shell_0000000285   
       285   4  2.026153E+01 -9.840774E-01 -1.096463E-02  4.027888E+00  5.473340E-04 -5.473339E-04 _shell_0000000285   
       285   5  2.251380E+01 -8.221219E-01  1.471339E-02  4.027888E+00  5.473340E-04 -5.473339E-04 _shell_0000000285   
       285   6  2.025988E+01 -8.237639E-01  4.712747E-02  4.027888E+00 -5.473339E-04 -5.473339E-04 _shell_0000000285   
       285   7  2.251216E+01 -9.857194E-01 -5.104140E-02  4.027888E+00  5.473339E-04  5.473339E-04 _shell_0000000285   
       285   8  2.026153E+01 -9.840774E-01 -1.096463E-02  4.027888E+00 -5.473340E-04  5.473339E-04 _shell_0000000285   
       286   1  2.276542E+01 -1.169382E+00 -5.480068E-02  3.864875E+00 -5.371532E-04 -5.371532E-04 _shell_0000000286   
       286   2  2.276703E+01 -9.981618E-01  1.074949E-02  3.864875E+00 -5.371532E-04  5.371532E-04 _shell_0000000286   
       286   3  2.050896E+01 -1.167770E+00 -6.766661E-03  3.864875E+00  5.371532E-04 -5.371532E-04 _shell_0000000286   
       286   4  2.050735E+01 -9.997733E-01  5.126334E-02  3.864875E+00  5.371532E-04  5.371532E-04 _shell_0000000286   
       286   5  2.276542E+01 -1.169382E+00 -5.480068E-02  3.864875E+00  5.371532E-04  5.371532E-04 _shell_0000000286   
       286   6  2.276703E+01 -9.981618E-01  1.074949E-02  3.864875E+00  5.371532E-04 -5.371532E-04 _shell_0000000286   
       286   7  2.050896E+01 -1.167770E+00 -6.766661E-03  3.864875E+00 -5.371532E-04  5.371532E-04 _shell_0000000286   
       286   8  2.050735E+01 -9.997733E-01  5.126334E-02  3.864875E+00 -5.371532E-04 -5.371532E-04 _shell_0000000286   
       287   1  1.901045E+01 -1.589255E+00 -5.723412E-02  3.906627E+00 -5.352807E-04 -5.352807E-04 _shell_0000000287   
       287   2  1.901206E+01 -1.394451E+00  3.566661E-03  3.906628E+00 -5.352809E-04  5.352808E-04 _shell_0000000287   
       287   3  1.676010E+01 -1.587649E+00  1.118978E-04  3.906627E+00  5.352808E-04 -5.352807E-04 _shell_0000000287   
       287   4  1.675850E+01 -1.396057E+00  5.341851E-02  3.906628E+00  5.352808E-04  5.352808E-04 _shell_0000000287   
       287   5  1.901045E+01 -1.589255E+00 -5.723412E-02  3.906627E+00  5.352807E-04  5.352807E-04 _shell_0000000287   
       287   6  1.901206E+01 -1.394451E+00  3.566661E-03  3.906628E+00  5.352809E-04 -5.352808E-04 _shell_0000000287   
       287   7  1.676010E+01 -1.587649E+00  1.118978E-04  3.906627E+00 -5.352808E-04  5.352807E-04 _shell_0000000287   
       287   8  1.675850E+01 -1.396057E+00  5.341851E-02  3.906628E+00 -5.352808E-04 -5.352808E-04 _shell_0000000287   
       288   1 -3.845244E+00 -1.946760E-01  3.266240E-02  5.156271E+00  7.707812E-04 -7.707812E-04 _shell_0000000288   
       288   2 -3.654941E+00 -1.969884E-01  3.047761E-02  5.156271E+00 -7.707812E-04 -7.707812E-04 _shell_0000000288   
       288   3 -3.847556E+00 -3.748078E-01 -3.802173E-02  5.156271E+00  7.707812E-04  7.707812E-04 _shell_0000000288   
       288   4 -3.652629E+00 -3.724954E-01 -2.941558E-02  5.156271E+00 -7.707812E-04  7.707812E-04 _shell_0000000288   
       288   5 -3.845244E+00 -1.946760E-01  3.266240E-02  5.156271E+00 -7.707812E-04  7.707812E-04 _shell_0000000288   
       288   6 -3.654941E+00 -1.969884E-01  3.047761E-02  5.156271E+00  7.707812E-04  7.707812E-04 _shell_0000000288   
       288   7 -3.847556E+00 -3.748078E-01 -3.802173E-02  5.156271E+00 -7.707812E-04 -7.707812E-04 _shell_0000000288   
       288   8 -3.652629E+00 -3.724954E-01 -2.941558E-02  5.156271E+00  7.707812E-04 -7.707812E-04 _shell_0000000288   
       289   1  2.027031E+01 -3.518826E-02 -3.042773E-02  4.520876E+00 -5.147572E-04 -5.147572E-04 _shell_0000000289   
       289   2  2.027185E+01  4.527528E-02  3.000299E-02  4.520876E+00 -5.147572E-04  5.147572E-04 _shell_0000000289   
       289   3  1.819241E+01 -3.364399E-02 -2.653386E-02  4.520876E+00  5.147572E-04 -5.147572E-04 _shell_0000000289   
       289   4  1.819087E+01  4.373101E-02  2.669026E-02  4.520876E+00  5.147572E-04  5.147572E-04 _shell_0000000289   
       289   5  2.027031E+01 -3.518826E-02 -3.042773E-02  4.520876E+00  5.147572E-04  5.147572E-04 _shell_0000000289   
       289   6  2.027185E+01  4.527528E-02  3.000299E-02  4.520876E+00  5.147572E-04 -5.147572E-04 _shell_0000000289   
       289   7  1.819241E+01 -3.364399E-02 -2.653386E-02  4.520876E+00 -5.147572E-04  5.147572E-04 _shell_0000000289   
       289   8  1.819087E+01  4.373101E-02  2.669026E-02  4.520876E+00 -5.147572E-04 -5.147572E-04 _shell_0000000289   
       290   1 -3.513961E+00 -2.001237E-01  2.747606E-02  5.391672E+00  7.727639E-04 -7.727639E-04 _shell_0000000290   
       290   2 -3.323936E+00 -2.024420E-01  2.119036E-02  5.391672E+00 -7.727639E-04 -7.727639E-04 _shell_0000000290   
       290   3 -3.516280E+00 -3.798150E-01 -2.918583E-02  5.391672E+00  7.727639E-04  7.727639E-04 _shell_0000000290   
       290   4 -3.321618E+00 -3.774967E-01 -2.465284E-02  5.391672E+00 -7.727639E-04  7.727639E-04 _shell_0000000290   
       290   5 -3.513961E+00 -2.001237E-01  2.747606E-02  5.391672E+00 -7.727639E-04  7.727639E-04 _shell_0000000290   
       290   6 -3.323936E+00 -2.024420E-01  2.119036E-02  5.391672E+00  7.727639E-04  7.727639E-04 _shell_0000000290   
       290   7 -3.516280E+00 -3.798150E-01 -2.918583E-02  5.391672E+00 -7.727639E-04 -7.727639E-04 _shell_0000000290   
       290   8 -3.321618E+00 -3.774967E-01 -2.465284E-02  5.391672E+00  7.727639E-04 -7.727639E-04 _shell_0000000290   
       291   1  2.002917E+01  7.616793E-02  3.049280E-02  4.519698E+00 -5.070274E-04  5.070274E-04 _shell_0000000291   
       291   2  1.797508E+01  7.464685E-02  2.609081E-02  4.519698E+00  5.070274E-04  5.070274E-04 _shell_0000000291   
       291   3  2.002765E+01  1.251209E-03 -2.970791E-02  4.519698E+00 -5.070274E-04 -5.070274E-04 _shell_0000000291   
       291   4  1.797660E+01  2.772291E-03 -2.701152E-02  4.519698E+00  5.070274E-04 -5.070274E-04 _shell_0000000291   
       291   5  2.002917E+01  7.616793E-02  3.049280E-02  4.519698E+00  5.070274E-04 -5.070274E-04 _shell_0000000291   
       291   6  1.797508E+01  7.464685E-02  2.609081E-02  4.519698E+00 -5.070274E-04 -5.070274E-04 _shell_0000000291   
       291   7  2.002765E+01  1.251209E-03 -2.970791E-02  4.519698E+00  5.070274E-04  5.070274E-04 _shell_0000000291   
       291   8  1.797660E+01  2.772291E-03 -2.701152E-02  4.519698E+00 -5.070274E-04  5.070274E-04 _shell_0000000291   