# vtk DataFile Version 3.0
Results from optimization
ASCII
DATASET UNSTRUCTURED_GRID

POINTS 258 float
-36822.91282895 -21259.71863434 -22000.0 -36821.75809606 -21259.71863434 -22000.0 
-36822.91282895 -21259.71863434 15000.0 36822.91282895 -21259.71863434 15000.0 
36822.91282895 -21259.71863434 -22000.0 36821.75809606 -21259.71863434 -22000.0 
36821.75809606 -21259.71863434 -11780.0 26414.44220793 -21259.71863434 -11780.0 
26414.44220793 -21259.71863434 -22000.0 -26414.44220793 -21259.71863434 -22000.0 
-26414.44220793 -21259.71863434 -11780.0 -36821.75809606 -21259.71863434 -11780.0 
-36822.3354625 -21258.71860632 -22000.0 -36822.3354625 -21258.71860632 -11780.0 
-25609.10015208 -18254.71863432 -11780.0 -25633.73016609 -17711.21438347 -11780.0 
-28155.22667103 -13343.8543261 -11780.0 -31618.67751856 -12245.71866214 -11780.0 
-25609.10015208 -18254.71863432 -22000.0 25633.73016609 -17711.21438347 -22000.0 
28155.22667103 -13343.8543261 -22000.0 31618.67751856 -12245.71866214 -22000.0 
5204.235310448 33505.43729613 -22000.0 2521.496504797 31055.06870951 -22000.0 
-2521.496504797 31055.06870951 -22000.0 -5204.235310448 33505.43729613 -22000.0 
-31618.67751856 -12245.71866214 -22000.0 -28155.22667103 -13343.8543261 -22000.0 
-25305.12677962 -16344.85931721 -22000.0 -25633.73016609 -17711.21438347 -22000.0 
1630.0 2069.014260195 -22000.0 6009.0 21230.56273159 -22000.0 
25633.73016609 -17711.21438347 -11780.0 36822.3354625 -21258.71860632 -11780.0 
31618.67751856 -12245.71866214 -11780.0 28155.22667103 -13343.8543261 -11780.0 
31315.12677975 -16344.85931721 -11780.0 36822.3354625 -21258.71860632 -22000.0 
-0.0 42519.43726841 15000.0 -0.0 42519.43726841 -22000.0 
0.5773662835 42518.43724067 -22000.0 0.5773662836 42518.43724067 -11780.0 
5204.235310448 33505.43729613 -11780.0 -25305.12677962 -16344.85931721 15000.0 
31315.12677975 -16344.85931721 15000.0 1630.0 2069.014260195 15000.0 
3005.0 32689.71863421 15000.0 -0.5773662836 42518.43724067 -22000.0 
-5204.235310448 33505.43729613 -11780.0 -0.5773662836 42518.43724067 -11780.0 
-2521.496504797 31055.06870951 -11780.0 3005.0 32689.71863421 -11780.0 
2521.496504797 31055.06870951 -11780.0 6009.0 21230.56273159 -11780.0 
-0.0 -21259.7186343399 15000.0 -30480.0013468478 -14265.996800547 -11780.0 
-31301.7457889984 -16628.1272178434 -11780.0 -30051.2534822316 -18794.0434274968 -11780.0 
-27594.7163126993 -19263.4570736857 -11780.0 25707.7204413046 -14842.3593171048 -22000.0 
-0.0 29684.71863421 -22000.0 -26131.193574321 -14275.4934513165 -22000.0 
1016.2883770297 3343.3995766179 -22000.0 -362.7091223488 3658.1467570514 -22000.0 
-1468.5792546809 2776.2447549566 -22000.0 -1468.579254681 1361.7837654334 -22000.0 
-362.7091223488 479.8817633386 -22000.0 1016.2883770297 794.6289437721 -22000.0 
3746.5502193691 25928.5881097404 -22000.0 -1337.1282921435 27088.9045558906 -22000.0 
-5413.9219272257 23837.7701199474 -22000.0 -5413.9219272257 18623.3553432326 -22000.0 
-1337.1282921435 15372.2209072894 -22000.0 3746.5502193691 16532.5373534396 -22000.0 
30379.4926455835 -14165.926111841 -11780.0 27686.8994316521 -19284.5213170056 -11780.0 
30201.8491191853 -18679.6851331199 -11780.0 18411.4564144839 10629.8593170402 15000.0 
-18411.4564144661 10629.8593170298 15000.0 -26436.5399250646 -13995.4557123435 15000.0 
-28978.802186243 -13415.2009410412 15000.0 -31017.5382277944 -15041.038681134 15000.0 
-31017.5382277944 -17648.679953286 15000.0 -28978.802186243 -19274.5176933788 15000.0 
-26436.5399250646 -18694.2629220765 15000.0 30183.7136343154 -13995.4557123435 15000.0 
27641.451373137 -13415.2009410412 15000.0 25602.7153315856 -15041.038681134 15000.0 
25602.7153315856 -17648.679953286 15000.0 27641.451373137 -19274.5176933788 15000.0 
30183.7136343154 -18694.2629220765 15000.0 1016.2883770297 3343.3995766179 15000.0 
-362.7091223488 3658.1467570514 15000.0 -1468.5792546809 2776.2447549566 15000.0 
-1468.579254681 1361.7837654334 15000.0 -362.7091223488 479.8817633386 15000.0 
1016.2883770297 794.6289437721 15000.0 1873.5868545855 35039.1222390264 15000.0 
-668.6754065387 35619.3770103164 15000.0 -2707.4114480468 33993.5392702583 15000.0 
-2707.4114480468 31385.8979981617 15000.0 -668.6754065388 29760.0602581036 15000.0 
1873.5868545855 30340.3150293936 15000.0 1798.4406619313 35097.1313918218 -11780.0 
-852.3285760479 35571.3086464172 -11780.0 -2818.6485610931 33731.4697028669 -11780.0 
3746.5502193691 25928.5881097404 -11780.0 -1337.1282921435 27088.9045558906 -11780.0 
-5413.9219272257 23837.7701199474 -11780.0 -5413.9219272257 18623.3553432326 -11780.0 
-1337.1282921435 15372.2209072894 -11780.0 3746.5502193691 16532.5373534396 -11780.0 
17216.0976764902 -21259.7186343398 -3500.0 -6843.4322545076 -21259.7186343399 -5401.6140635725 
-2656.4675156569 -11056.7464406474 -22000.0 -1807.3730648195 -2110.7013481401 -22000.0 
-9585.9058946305 -2575.0588146542 -22000.0 9803.4075762051 25539.4372590599 -3500.0 
21833.1725417556 4703.2731354935 -5401.6140636343 3633.1488666039 18742.8146496143 15000.0 
11711.7443887212 -9424.5695829592 15000.0 17751.1677127855 -4459.5029021477 15000.0 
-2905.3661463436 16964.9595308178 15000.0 -12803.9741171388 -6220.933125522 15000.0 
930.7516252038 26946.7202143039 15000.0 -955.2354576298 25899.5056941302 15000.0 
175.8247219586 22138.5000222165 15000.0 -27019.5052527449 -4279.7186249898 -3500.0 
-14989.7402872179 16556.4454985359 -5401.6140636233 -31148.289744013 -15357.5113601402 -9631.3002487724 
-27641.6013938428 -13415.1667038353 12763.2324589652 -30676.0918828636 -18197.4882954324 12761.4090487153 
-30912.5331180754 -17847.3593173152 -9631.3002487708 -31301.7457889985 -16628.127217842 -7475.130202211 
-30041.1549588272 -18801.1912254458 -7476.722853222 -31250.6579984387 -16963.9725152191 -4651.636597414 
-30880.9566676695 -14788.9484304764 -7475.7645794773 -31315.126779754 -16344.85931721 12761.4098617845 
-31020.6446201258 -17642.2097082239 10521.4115479949 -28961.7341185111 -19278.3611284212 10514.6250243823 
-31009.9013801432 -15025.2979858833 10514.6250243824 -31315.1223070572 -16350.0439954118 8235.9531786645 
-30119.1376745194 -13945.3792521182 8222.6204256928 -31005.9977912609 -15017.3411480853 5830.3701017351 
-29434.1135069122 -13557.9831381498 5831.6603005211 -30785.8382216448 -14641.6629525594 3269.8830541535 
-31307.5623733784 -16131.7751505653 3303.0388705615 -28090.3260051407 -13347.9087637487 8313.5135036264 
-30966.194993583 -14939.396175206 563.2756759157 -29544.5674911378 -13605.118247272 569.9328530506 
-30457.1230496984 -18447.3416636174 629.4231311585 -30356.5652908821 -14144.3788196153 -2624.3800822089 
-30180.8114981537 -13993.144265489 12763.1436200502 -28978.4391989312 -13415.1181152141 10535.0121343897 
-31214.561867365 -17115.7560819373 5805.9160089457 -31219.2218927336 -15591.7387268327 -2306.8105676128 
-28113.7655318452 -13346.2817776541 10627.3916329935 -26166.6619736486 -14238.7767866224 12761.0968746661 
-30398.3889682958 -18505.6892577708 -9670.1963863464 -30031.6208372881 -13881.8361321711 -9588.3349496729 
-31216.8171247676 -15582.5101595288 -4730.3219554035 -26.5974243361 35694.6009242538 12761.0605877223 
-2053.1123008506 34883.9736057427 -9469.781263624 -2365.6380138074 30836.6720110433 12761.0022461285 
-2157.33697911 34781.5891269902 12760.1567624858 -668.9601317331 35619.3120090919 10515.989002338 
-2712.1099416127 33983.7374380168 10514.9442708922 -1877.2454627484 35036.199930234 8264.7169553229 
682.1413290091 35616.2709073221 8266.2199160418 -3004.9105494821 32666.532655439 8264.1241409639 
-2713.2010120006 33981.4481989716 5924.3574977592 -2624.8431341123 31226.7683543634 5944.8322461564 
-3002.8110601326 32575.041970736 3464.455578179 -2075.2793478061 30516.4168538377 3495.7820796782 
-2545.2071397298 31092.2376121417 832.0382444203 -2915.9969690208 33415.6571141528 864.9273576111 
-2054.2958949849 30496.5717226128 6447.2726115622 -2647.4195610705 31268.0313733606 -7731.868117384 
141.7710479872 29688.0647617669 10782.8530742374 3e-10 29684.71863421 -16805.6412209681 
-2979.1219700271 33083.2377413722 -2255.9727166807 16.1438442314 35694.6752688877 -2103.5204466471 
-1934.1442352596 30389.9118864131 -2148.0816759904 -971.0548493829 29845.9399016976 830.2218098548 
-2998.586023871 32885.9502765245 12760.1406314859 -2933.0647760655 32036.1468941509 10541.4311234406 
-2702.8816255467 31376.533225259 8262.1260050179 1813.40056851 35085.8829395379 10558.3563913057 
-2466.0062738656 34406.9367500169 3477.1766081003 -1478.930183643 35305.5914353816 5920.2669256137 
-2418.2542760632 34473.5547411161 -5351.7651102844 -379.9146887452 35670.6060573234 -8507.0654262453 
-1848.1811279196 30320.2774514832 -4787.2376406965 -900.4778601033 29822.8100860586 -4897.589376695 
524.387173637 29730.8264272979 -8754.1362137495 -3004.1842960585 32619.706383028 -9671.4672923622 
-1704.7019432308 30215.043648531 -6850.1170289401 29012.7835865115 -19266.5537591755 -9559.0751667569 
25305.126779626 -16344.85931721 12761.4098617845 29351.8778483901 -13526.2107560646 -8549.6800706557 
28283.4144489305 -13339.9780463825 12761.4083679951 25488.7354317141 -17379.1590135996 -7879.0025640789 
26028.7417173539 -14389.0200605903 -9048.2061092777 25707.7204413046 -14842.3593171049 -16805.6412209712 
26176.0351806654 -14229.2794800597 12761.4066029097 27641.4513731377 -13415.2009410411 10516.9409314072 
30194.1390349932 -14003.8076684308 10516.6001239212 25943.874100568 -18197.1209777031 12761.6620658744 
25602.6839704035 -17648.6148291169 10523.6599390048 27643.730166197 -19275.0368807562 10522.4193011925 
25597.9606682898 -15050.9582450422 10517.6950802878 26431.7363860499 -13999.2944535865 8265.1741093651 
25381.5068866453 -15671.6501948359 8267.1678209625 25594.9500208498 -15057.2878944771 5493.3560380423 
25548.1052573729 -15161.1101416488 -6060.671197399 25701.3980934653 -17836.3550906042 -4866.1317210189 
25420.5842628149 -15519.8932309035 -3158.6374664616 25918.7339962615 -18164.5476300127 -1979.8614734312 
[...]
CELL_DATA 739

SCALARS element_states float
LOOKUP_TABLE default
1 1 1 1 1 1 1 1 1 1 1 1 1 1 1 1 1 1 1 1 1 1 1 1 1 1 1 1 1 1 
1 1 1 1 1 1 1 1 1 1 1 1 1 1 1 1 1 1 1 1 1 1 1 1 1 1 1 1 1 1 
1 1 1 1 1 1 1 1 1 1 1 1 1 1 1 1 1 1 1 1 1 1 1 1 1 1 1 1 1 1 
1 1 1 1 1 1 1 1 1 1 1 1 1 1 1 1 1 1 1 1 1 1 1 1 1 1 1 1 1 1 
1 1 1 1 1 1 1 1 1 1 1 1 1 1 1 1 1 1 1 1 1 1 1 1 1 1 1 1 1 1 
1 1 1 1 1 1 1 1 1 1 1 1 1 1 1 1 1 1 1 1 1 1 1 1 1 1 1 1 1 1 
1 1 1 1 1 1 1 1 1 1 1 1 1 1 1 1 1 1 1 1 1 1 1 1 1 1 1 1 1 1 
1 1 1 1 1 1 1 1 1 1 1 1 1 1 1 1 1 1 1 1 1 1 1 1 1 1 1 1 1 1 
1 1 1 1 1 1 1 1 1 1 1 1 1 1 1 1 1 1 1 1 1 1 1 1 1 1 1 1 1 1 
1 1 1 1 1 1 1 1 1 1 1 1 1 1 1 1 1 1 1 1 1 1 1 1 1 1 1 1 1 1 
1 1 1 1 1 1 1 1 1 1 1 1 1 1 1 1 1 1 1 1 1 1 1 1 1 1 1 1 1 1 
1 1 1 1 1 1 1 1 1 1 1 1 1 1 1 1 1 1 1 1 1 1 1 1 1 1 1 1 1 1 
1 1 1 1 1 1 1 1 1 1 1 1 1 1 1 1 1 1 1 1 1 1 1 1 1 1 1 1 1 1 
1 1 1 1 1 1 1 1 1 1 1 1 1 1 1 1 1 1 1 1 1 1 1 1 1 1 1 1 1 1 
1 1 1 1 1 1 1 1 1 1 1 1 1 1 1 1 1 1 1 1 1 1 1 1 1 1 1 1 1 1 
1 1 1 1 1 1 1 1 1 1 1 1 1 1 1 1 1 1 1 1 1 1 1 1 1 1 1 1 1 1 
1 1 1 1 1 1 1 1 1 1 1 1 1 1 1 1 1 1 1 1 1 1 1 1 1 1 1 1 1 1 
1 1 1 1 1 1 1 1 1 1 1 1 1 1 1 1 1 1 1 1 1 1 1 1 1 1 1 1 1 1 
1 1 1 1 1 1 1 1 1 1 1 1 1 1 1 1 1 1 1 1 1 1 1 1 1 1 1 1 1 1 
1 1 1 1 1 1 1 1 1 1 1 1 1 1 1 1 1 1 1 1 1 1 1 1 1 1 1 1 1 1 
1 1 1 1 1 1 1 1 1 1 1 1 1 1 1 1 1 1 1 1 1 1 1 1 1 1 1 1 1 1 
1 1 1 1 1 1 1 1 1 1 1 1 1 1 1 1 1 1 1 1 1 1 1 1 1 1 1 1 1 1 
1 1 1 1 1 1 1 1 1 1 1 1 1 1 1 1 1 1 1 1 1 1 1 1 1 1 1 1 1 1 
1 1 1 1 1 1 1 1 1 1 1 1 1 1 1 1 1 1 1 1 1 1 1 1 1 1 1 1 1 1 
1 1 1 1 1 1 1 1 1 1 1 1 1 1 1 1 1 1 1 

SCALARS sensitivity_number float
LOOKUP_TABLE default
4.283305161214506e-06 3.528173256240856e-05 4.8009120248755195e-05 5.500223948303359e-05 3.835758338205373e-06 5.865744821325785e-05 
2.7351163182153213e-06 0.0011767700096404926 1.4538246275760875e-05 9.070138536975263e-05 3.763153467619922e-06 4.485166322648218e-06 
6.695897843817798e-05 2.2759339753986224e-06 0.00025573527613756354 3.1583572213128197e-06 4.541847216499661e-06 4.679305862506245e-06 
4.472653101232553e-06 4.20041996348393e-06 2.8701430388397398e-05 2.3286795953675573e-06 2.8066159659027475e-06 3.486703037680826e-05 
5.60939731215166e-06 3.5800238833582894e-06 5.258881869684704e-06 0.00013655107133824464 4.8262983367162635e-06 5.461905899990926e-05 
2.9450405858801256e-05 4.371001302256581e-06 3.3180785998287074e-06 2.2986047383453776e-06 2.923837552064093e-06 4.343236846370338e-06 
3.259277601998264e-06 4.299363324917656e-06 3.5204492447635536e-05 5.465197217761041e-06 5.117771902349191e-06 4.159811121625656e-06 
2.8048693604250554e-06 8.917011537896821e-05 2.9683726824540237e-06 4.319950100772456e-06 4.985425303165937e-06 3.3534533110129332e-06 
5.745978602430738e-06 5.7126354101847164e-05 5.312117470153618e-05 2.7534869145173467e-06 2.8758049224303714e-06 2.388978035528886e-06 
2.196222193734774e-06 4.793523017948539e-06 3.927771339935286e-06 8.783383540674585e-05 4.3143707387966015e-06 1.8548580510226664e-06 
2.4230016147134678e-06 5.265984062235875e-06 2.5034283467046183e-05 4.378025380975854e-06 4.43660421829715e-05 5.0915882777467665e-05 
3.753592623418238e-06 4.22556116126908e-06 3.8080189085620337e-06 0.00016793638773186198 3.1732498001710166e-06 4.592699457056439e-06 
2.6008084415024512e-06 4.5220251646154304e-05 4.868290761610665e-05 4.753858785721635e-06 5.054686605035525e-06 4.7967480311983075e-05 
2.4180608127947646e-06 1.1905044695265032e-05 3.2761072568622405e-06 4.686203689876268e-06 3.615710170053224e-06 4.9920583099262766e-06 
4.376618023801705e-06 3.0318775034624215e-06 0.00010622983606512629 3.626319093465742e-05 2.758855678119966e-06 4.326801486534391e-06 
3.206109428328529e-06 3.3185495138698715e-06 2.763445151342139e-05 4.021888102361461e-06 4.247843916577196e-06 9.053913795029798e-05 
0.0007455681867083796 4.325941154556594e-05 1.1264481859766607e-05 2.9992232558079896e-06 2.2380943061199125e-05 2.4594611726576826e-05 
3.268115319986675e-06 3.7197536706907204e-06 3.8088293087156415e-06 7.771890540750233e-05 8.896329190085982e-05 3.841034454796759e-05 
1.653394710506231e-05 3.1072257083051688e-06 2.418993364073036e-06 4.4418287844513884e-05 6.017917123949705e-06 3.4688477609456765e-06 
2.619882554209607e-06 3.0395119443048895e-06 1.1273012939929917e-05 5.068744554389617e-06 5.4271385518620394e-05 4.256474333412867e-06 
5.736283977627577e-06 3.815081698555382e-06 5.3454873782241346e-05 3.395183199252675e-06 3.337796721958031e-06 3.718696561513283e-06 
2.814222391144964e-06 1.9454640793145634e-05 3.985400662830167e-06 3.1264974876880368e-06 5.360632338960743e-05 6.610894726492198e-06 
8.188877035702833e-05 3.002763412515459e-06 7.866513386927631e-05 1.0710954262670125e-05 1.587840837453794e-05 6.350545479594603e-06 
6.375652116185576e-06 3.7936484002046718e-06 0.00016337508475660102 4.8403321371684165e-06 0.0017069413220204218 5.867437455595505e-05 
9.367830430165631e-05 9.007445959467561e-06 3.3138683428025547e-06 5.802684902953141e-05 3.7325527337910534e-06 2.6879719123993562e-06 
5.175248782981944e-06 3.0094838565682304e-06 4.339292753293187e-05 3.2153686201303294e-06 2.268986214206044e-06 5.239891102908265e-05 
3.702298809189561e-05 4.992503325043515e-06 5.0343826630489025e-06 4.536946172763585e-06 5.35083940648517e-05 4.5864164078584446e-05 
2.3971405720928928e-05 5.059140156233453e-06 3.237329158778404e-06 2.676314049832388e-06 2.61457543543209e-06 3.3868711955949233e-06 
4.160329822634514e-06 4.873367455493339e-06 3.832267965573382e-06 2.706859707854085e-06 0.00010889971743672891 0.001764892506768193 
3.7614809988513755e-06 4.90625487288438e-05 3.1230877426121325e-06 4.003379264002617e-06 2.796175903292218e-06 3.2627929431211137e-06 
5.303187839417072e-06 2.2269577123432236e-06 3.8023714508874845e-06 4.757483230266792e-06 5.187780597488103e-06 5.067128215194239e-06 
0.001488531819709649 2.855362543638051e-06 4.865003420011065e-06 3.2981346192352208e-06 4.296108273965541e-06 0.0001245763847244287 
4.377721338512032e-06 5.092543428879207e-06 2.618460889939639e-06 8.18489022937224e-05 8.398399872788925e-05 2.833254899444972e-06 
4.3405611213206565e-06 0.000736223552969614 2.1804554034350078e-05 4.9123654926577325e-06 2.264224848996306e-06 3.0568948186017817e-06 
3.481031558359564e-05 5.520258888205601e-05 3.2854462789364164e-06 3.82544875166883e-06 2.991240506874055e-06 2.5590966860659502e-06 
0.00012533632791254999 3.239486188179619e-06 4.933082665986309e-06 3.6605848176826764e-06 2.9984976052236555e-06 3.434083030816757e-06 
5.106193470333725e-06 2.1534030529755673e-06 3.7628778827217085e-06 9.901635481608876e-06 8.63688481488469e-05 2.4231879781008416e-06 
5.1074932925523196e-05 2.953094317689869e-06 4.303728545191834e-06 4.242920669381252e-06 4.3590779985203064e-06 5.939972504860703e-06 
8.986587901020158e-05 0.00010449966008206352 2.1423384442993893e-05 8.44323523880107e-05 1.2157245134511308e-05 4.996275931435808e-06 
4.114608102686148e-06 2.823189705173639e-06 2.6332909166098778e-05 2.94672705394875e-06 4.9427256239401104e-06 5.186124565785481e-05 
3.0791440033783814e-06 4.098284663407759e-06 4.171053237431773e-06 0.0001372464702987292 3.487663268093839e-06 2.9238492183488097e-06 
2.738445142663377e-06 4.1554426491995206e-05 2.822803269975958e-06 6.890002661506987e-05 1.7096425014346865e-06 3.7446988167770514e-06 
5.9707890167078625e-06 7.046087579248197e-06 2.3110376605932443e-06 1.5497098472645586e-05 3.2570403333500025e-06 2.9902255110361404e-06 
2.763682667530945e-06 3.854143121288141e-06 0.0012009579258163681 4.319609805536334e-06 3.562025903493896e-06 8.754916203626957e-05 
3.182506086084292e-06 3.1719311194363355e-06 0.00012106874671954628 5.409039716647225e-06 2.5046490873593114e-06 4.4011519527794224e-06 
5.327115050250384e-06 0.002496156091945542 2.955145621998839e-06 2.752959370536918e-06 2.3766672753521955e-06 4.9419145306992164e-06 
2.531674206045985e-06 3.84982936040401e-06 3.2007822344058788e-06 0.000672961329572175 4.386169537224051e-05 2.8770776754828183e-05 
0.0005129935791689702 3.690708456752366e-06 3.030905896999757e-06 8.873463546824262e-06 0.002684804751146239 4.3392621285770755e-05 
1.576283610955396e-06 5.107761272291537e-05 0.00019037236086381175 2.1391490239571456e-06 2.709207905744499e-06 5.066333499205651e-06 
4.913355203118366e-06 6.570094717324943e-05 3.32303180035356e-05 4.059072241031925e-06 5.060344391310243e-06 3.696663678454621e-06 
5.034859546177103e-06 3.3903635909969913e-06 3.6843598461329597e-06 3.853683441351266e-06 3.347511037284051e-06 3.386222677449074e-06 
1.8907960153859857e-06 3.5277238771754953e-06 4.430987338333205e-05 4.321239070869052e-06 2.4459516036807623e-06 1.892387179914799e-05 
3.066976841364107e-06 3.993096241397261e-06 3.416667470584534e-05 0.00018280171380497402 3.870171843615295e-06 4.477619241255285e-05 
8.165928733313198e-05 3.7033123515252284e-06 8.901109920408579e-05 3.648506994113547e-05 2.206064443634925e-06 4.330914015009574e-06 
3.5105516440568624e-05 2.661728730336449e-06 2.2332160244209226e-06 2.340277885001134e-06 2.4418544657275125e-06 2.080961304332512e-06 
3.4367667957048104e-06 2.8248554972689448e-05 3.872892541600482e-06 2.955214875178349e-06 2.452890825666259e-06 3.1729176899712476e-05 
5.153453207262191e-06 1.8836197429583313e-06 1.5116537638881527e-05 2.831793821738451e-06 2.0651655603181246e-06 5.01316114550313e-05 
1.648328590351473e-06 3.8651027287280576e-05 3.863391255819365e-06 2.5068347906416093e-06 0.007863419125539018 3.191509995110856e-06 
3.1450803818570737e-06 3.6735460695319126e-05 2.333446634240982e-05 3.849409038638387e-06 4.2353958349336215e-05 1.8565341184023705e-06 
2.7226865842500046e-06 4.4024017649876404e-05 5.9298627588939395e-05 3.181585849016796e-05 2.0802808115598187e-06 2.638763700908049e-06 
3.357552518920552e-05 4.424076244262797e-05 4.3245432489668675e-05 2.110039199489118e-06 5.120813932404458e-06 4.947315198502928e-06 
3.356752640633202e-05 0.00014208252614551873 7.680072444954698e-06 3.0229891823033955e-05 9.397348915017508e-05 0.00013143291593641158 
3.7611900499388665e-06 3.562689664356232e-05 0.009707547938554753 0.0009814638436308886 0.0006839893903764667 1.8236654702121548e-06 
0.0077748686724762395 2.2391474382797875e-06 4.959132118931344e-06 3.978491907770439e-05 1.3172182210223047e-06 2.1736816442062444e-06 
0.009806537828769097 0.0009583826609660782 0.0006944830329250953 3.874970771140101e-05 0.00011853942515613627 2.432804984549455e-06 
3.4206810198006003e-06 2.9623292581490545e-06 5.1605132499609244e-05 4.764442535483331e-05 6.218497203937319e-05 5.174393942277377e-05 
5.612064341631244e-05 6.314203574194021e-05 3.9731566921993965e-05 6.317208507607307e-05 3.807933801421437e-06 2.8410424934345388e-06 
2.5803713823275337e-06 3.085096657268594e-06 2.599102168524392e-06 2.9716830439139162e-06 4.751843382122587e-05 3.3638625304940255e-06 
3.3880020542207538e-06 2.963925874800402e-06 3.0831819944994505e-06 6.221755383692374e-05 4.872363386358691e-05 4.931315065090179e-05 
5.4911952543408174e-05 0.00038576988030952585 6.055106021433922e-05 6.179054862349248e-05 5.754131114337019e-05 0.005773838654606748 
5.631074577897057e-05 7.196682513852705e-05 5.492471890610397e-05 6.815388768946246e-05 2.6024518851982086e-06 1.9027862065647926e-06 
1.7969303084334453e-06 2.495470808686879e-06 3.840151000069078e-06 4.899269916470427e-06 2.610572136465861e-06 2.4182584460305466e-06 
2.5958136133677808e-06 2.084817829464682e-06 4.918500210225831e-06 5.9658359981157815e-05 3.4736670564867265e-06 1.7661640377033793e-06 
2.443782436692468e-06 2.330087680780993e-06 2.8983527628859537e-06 3.246486633508167e-05 6.919757721032693e-05 0.0018922355712415733 
2.2884860571816813e-06 3.675262159458623e-05 2.3801171733381455e-06 2.8432214563860086e-06 2.9469306120547414e-06 4.5278360929907105e-05 
5.479238331487837e-05 0.0056377154362242735 1.2354150871315222e-06 3.0537340637222477e-06 3.634776993883016e-06 1.039593819482965e-05 
3.4491575908186913e-06 4.967232098204134e-05 4.82533446405128e-05 7.922410467031912e-05 5.228091562686827e-05 0.006097326512230746 
0.007918972920165343 2.0310440586703704e-05 3.167048780390494e-06 2.8549423395983724e-06 2.467317933467008e-06 2.3873874475751414e-06 
5.951510480829292e-05 4.364012591500328e-05 0.00010152644347224564 8.68782396407231e-05 1.8253635056327247e-06 3.938048014132539e-05 
4.694057182748928e-05 0.0006681138113628748 0.00013349631417266936 8.585994885855262e-05 3.861875606918695e-06 1.777217219746827e-05 
3.862818302272118e-06 8.609934925047255e-06 6.167758137425021e-06 6.42299774835336e-06 3.920342733989113e-06 4.060030019939392e-06 
3.3181202158848197e-06 5.0689587934501955e-05 3.974002835776999e-06 6.640122849455081e-06 6.760051691199667e-06 1.1344050165972681e-05 
1.0277818395661298e-05 4.210701385089662e-06 3.5914599967585934e-06 3.216255597377171e-05 3.515658584239129e-06 3.277248328468734e-06 
7.3668861924894e-05 8.871126221599025e-06 7.306633698104989e-06 5.72986025231111e-06 5.538468123225108e-06 3.921188112621361e-06 
8.137871839557662e-06 2.4942253111325287e-06 3.202249409643612e-05 4.997374026540223e-05 0.00016952022038149345 3.26624172121584e-06 
3.0192218040442187e-06 3.2535115458050194e-06 2.960033415263251e-06 3.1770912587367326e-06 3.400494715046283e-06 0.000149473920184281 
0.00013962453876750576 9.084494121276594e-05 6.142330108055675e-06 5.3640419707816465e-06 4.7030092745913036e-05 5.173721023294513e-05 
0.00015920777150252454 0.00010347785293925309 1.0197716517049898e-05 4.474035611769132e-06 2.8960997268776593e-06 3.7158324085554506e-06 
3.136426043717094e-06 1.4640771960806378e-05 0.00042429164254532097 0.0005522024864802714 3.662812702228613e-06 4.127940275252148e-05 
9.714710771302408e-05 1.979330065367637e-06 3.545157613389952e-06 1.8392757467195047e-06 1.2986078734617278e-05 0.0014041412849853999 
7.971277393621096e-06 1.785316936460667e-05 2.45533218762346e-06 6.207153923327387e-05 1.1410373219357335e-05 5.932141806500888e-06 
2.9112070073474096e-06 2.98304907957189e-06 2.7885701466469157e-06 3.810845115278962e-06 0.00012587953429107115 5.629493039119439e-05 
4.94347818295871e-05 2.4230227717467977e-06 2.1707395658328063e-06 2.7566390589471247e-06 8.171409655639126e-05 3.4418328874331534e-06 
2.9767997532932935e-06 0.00011609894607034649 2.4958514227581143e-06 3.827076767068133e-06 3.0030917307632008e-06 0.002277321362312329 
0.0023989724107561458 4.7637349081560924e-05 4.088043644494986e-05 5.220031830114531e-06 6.646777884571541e-06 2.284048665895554e-06 
5.097475429090364e-05 5.089274028761202e-06 6.319884976929228e-06 4.547876367392903e-06 2.7749838525604364e-06 8.619595497783574e-05 
2.631494580737752e-06 2.441300125073445e-06 3.131717206624852e-06 6.344220668689862e-06 5.919071563707101e-06 1.7679638968525452e-06 
0.0004973475351633723 6.857834636317571e-05 7.639024452809735e-05 0.00118228723692714 6.001093226381024e-05 7.029750372843906e-05 
2.726084189526621e-06 6.951013578678414e-05 6.42609875443502e-05 6.758792378399071e-05 0.005852743906634448 5.522720078042158e-05 
5.694402036918744e-05 0.0001249886648979073 0.0004119333174512689 0.0003589669300251429 0.0007600628448901461 5.699599532929314e-05 
6.047889063058289e-05 5.178233637981116e-05 5.411802195388456e-05 5.745198814323759e-05 0.005875162777242471 4.923411139389864e-06 
2.979684525788523e-06 1.893483784875006e-05 1.9061257473925066e-06 1.560099193470235e-05 5.293889184829337e-05 3.5461305156411735e-06 
2.103823082766863e-06 1.7603278244896052e-06 3.0260929952997982e-06 2.9351077012934037e-06 3.907248625013813e-05 4.3762485095671144e-05 
2.726574321576465e-06 2.07114382734664e-05 3.962095794093336e-06 2.978519684191643e-06 7.74940960404616e-05 2.9060547843562725e-06 
8.717240615910366e-05 0.00010703331892457573 0.0001384398187645919 0.00014042787041036175 3.893502751690954e-06 3.915460259076376e-06 
7.591284993877208e-06 3.840404755542622e-06 0.0010250099211252409 5.021660211747996e-05 4.738071640450465e-05 0.0005610250508820437 
0.0014920915768210851 0.0006737030491157502 4.610140267591304e-05 0.0014352296761353225 6.865133115767058e-05 6.516235768943753e-05 
1.6828863471331873e-05 3.271691930634536e-06 1.9807253794464565e-06 1.63952395172068e-06 1.3151844799462917e-05 2.871499969443908e-05 
3.9403954021242975e-06 8.627889895056205e-05 6.38479831225923e-05 3.690534729187655e-06 4.853246173138571e-06 4.855990401421239e-06 
5.161221551345381e-06 4.069519152119157e-06 4.208126290998789e-06 3.952816332899635e-06 8.424563769904974e-06 2.0658409562513593e-06 
3.499962085134108e-06 4.840643723565355e-06 5.138170808961896e-06 4.674770927285773e-06 4.85963357795523e-06 4.627774002986656e-06 
4.772772045439324e-06 0.0004096434248039059 2.7359058516434224e-06 0.000425007158078888 6.757643726036487e-05 7.860161029871582e-05 
2.5504450143839533e-05 3.6811662671460644e-05 2.8297375335415512e-06 2.8623462629029384e-06 0.00010131938360129345 2.949886779359009e-06 
3.353621702889462e-06 3.376709446122878e-06 3.3274157650036833e-06 3.321851049902399e-06 2.2591488971198157e-06 1.080633032553453e-05 
5.500854577377892e-05 5.9474783664499985e-05 0.0001653120116573556 0.00014215454145474624 5.2733907455947027e-05 7.115171819746782e-05 
6.489177155049312e-05 2.7300439874385146e-06 0.0013519014866806554 0.0027205723184852543 9.912634962628836e-05 0.00013091278756567021 
2.2727652246768646e-06 0.00045402647959731385 0.0005967088315065354 1.6824947887224009e-06 0.0005137306407090225 2.672522839097097e-06 
3.10151532912789e-06 0.00014811099838358483 9.735376023178734e-05 2.8920332371829453e-06 2.668852745812899e-06 2.994568044740425e-06 
2.583355035496813e-06 0.0006065393411594952 2.5408308738749126e-06 2.374977716443246e-06 2.976901870362973e-06 0.00044237494667798106 
2.752756774629211e-06 3.862770558854843e-06 3.7729200822566604e-06 3.151825858314095e-06 4.027471676240401e-06 5.334939404833661e-05 
9.608548833549305e-05 1.7193859461604946e-05 5.171779184586353e-05 1.863926619845695e-06 0.00045410052770486346 0.0001246188776558378 
8.507937521088439e-05 0.00011460759843130938 7.741653303978541e-05 9.317070846332482e-05 6.045854092638674e-05 4.043877477654948e-06 
3.4510527868252857e-06 0.00011266160635525089 6.462199303599671e-05 0.00011674417544458522 6.976902435509252e-05 0.00012364254720447846 
7.62347181459871e-05 

SCALARS FI=stress_von_Mises/450000000.0 float
LOOKUP_TABLE default
0 0 0 0 0 0 
0 0 0 0 0 0 
0 0 0 0 0 0 
0 0 0 0 0 0 
0 0 0 0 0 0 
0 0 0 0 0 0 
0 0 0 0 0 0 
0 0 0 0 0 0 
0 0 0 0 0 0 
0 0 0 0 0 0 
0 0 0 0 0 0 
0 0 0 0 0 0 
0 0 0 0 0 0 
0 0 0 0 0 0 
0 0 0 0 0 0 
0 0 0 0 0 0 
0 0 0 0 0 0 
0 0 0 0 0 0 
0 0 0 0 0 0 
0 0 0 0 0 0 
0 0 0 0 0 0 
0 0 0 0 0 0 
0 0 0 0 0 0 
0 0 0 0 0 0 
0 0 0 0 0 0 
0 0 0 0 0 0 
0 0 0 0 0 0 
0 0 0 0 0 0 
0 0 0 0 0 0 
0 0 0 0 0 0 
0 0 0 0 0 0 
0 0 0 0 0 0 
0 0 0 0 0 0 
0 0 0 0 0 0 
0 0 0 0 0 0 
0 0 0 0 0 0 
0 0 0 0 0 0 
0 0 0 0 0 0 
0 0 0 0 0 0 
0 0 0 0 0 0 
0 0 0 0 0 0 
0 0 0 0 0 0 
0 0 0 0 0 0 
0 0 0 0 0 0 
0 0 0 0 0 0 
0 0 0 0 0 0 
0 0 0 0 0 0 
0 0 0 0 0 0 
0 0 0 0 0 0 
0 0 0 0 0 0 
0 0 0 0 0 0 
0 0 0 0 0 0 
0 0 0 0 0 0 
0 0 0 0 0 0 
0 0 0 0 0 0 
0 0 0 0 0 0 
0 0 0 0 0 0 
0 0 0 0 0 0 
0 0 0 0 0 0 
0 0 0 0 0 0 
0 0 0 0 0 0 
0 0 0 0 0 0 
0 0 0 0 0 0 
0 0 0 0 0 0 
0 0 0 0 0 0 
0 0 0 0 0 0 
0 0 0 0 0 0 
0 0 0 0 0 0 
0 0 0 0 0 0 
0 0 0 0 0 0 
0 0 0 0 0 0 
0 0 0 0 0 0 
0 0 0 0 0 0 
0 0 0 0 0 0 
0 0 0 0 0 0 
0 0 0 0 0 0 
0 0 0 0 0 0 
0 0 0 0 0 0 
0 0 0 0 0 0 
0 0 0 0 0 0 
0 0 0 0 0 0 
0 0 0 0 0 0 
0 0 0 0 0 0 
0 0 0 0 0 0 
0 0 0 0 0 0 
0 0 0 0 0 0 
0 0 0 0 0 0 
0 0 0 0 0 0 
0 0 0 0 0 0 
0 0 0 0 0 0 
0 0 0 0 0 0 
0 0 0 0 0 0 
0 0 0 0 0 0 
0 0 0 0 0 0 
0 0 0 0 0 0 
0 0 0 0 0 0 
0 0 0 0 0 0 
0 0 0 0 0 0 
0 0 0 0 0 0 
0 0 0 0 0 0 
0 0 0 0 0 0 
0 0 0 0 0 0 
0 0 0 0 0 0 
0 0 0 0 0 0 
0 0 0 0 0 0 
0 0 0 0 0 0 
0 0 0 0 0 0 
0 0 0 0 0 0 
0 0 0 0 0 0 
0 0 0 0 0 0 
0 0 0 0 0 0 
0 0 0 0 0 0 
0 0 0 0 0 0 
0 0 0 0 0 0 
0 0 0 0 0 0 
0 0 0 0 0 0 
0 0 0 0 0 0 
0 0 0 0 0 0 
0 0 0 0 0 0 
0 0 0 0 0 0 
0 0 0 0 0 0 
0 0 0 0 0 0 
0 0 0 0 0 0 
0 

SCALARS FI=stress_von_Mises/450.0 float
LOOKUP_TABLE default