# vtk DataFile Version 3.0
Results from optimization
ASCII
DATASET UNSTRUCTURED_GRID

POINTS 258 float
-36822.91282895 -21259.71863434 -22000.0 -36821.75809606 -21259.71863434 -22000.0 
-36822.91282895 -21259.71863434 15000.0 36822.91282895 -21259.71863434 15000.0 
36822.91282895 -21259.71863434 -22000.0 36821.75809606 -21259.71863434 -22000.0 
36821.75809606 -21259.71863434 -11780.0 26414.44220793 -21259.71863434 -11780.0 
26414.44220793 -21259.71863434 -22000.0 -26414.44220793 -21259.71863434 -22000.0 
-26414.44220793 -21259.71863434 -11780.0 -36821.75809606 -21259.71863434 -11780.0 
-36822.3354625 -21258.71860632 -22000.0 -36822.3354625 -21258.71860632 -11780.0 
-25609.10015208 -18254.71863432 -11780.0 -25633.73016609 -17711.21438347 -11780.0 
-28155.22667103 -13343.8543261 -11780.0 -31618.67751856 -12245.71866214 -11780.0 
-25609.10015208 -18254.71863432 -22000.0 25633.73016609 -17711.21438347 -22000.0 
28155.22667103 -13343.8543261 -22000.0 31618.67751856 -12245.71866214 -22000.0 
5204.235310448 33505.43729613 -22000.0 2521.496504797 31055.06870951 -22000.0 
-2521.496504797 31055.06870951 -22000.0 -5204.235310448 33505.43729613 -22000.0 
-31618.67751856 -12245.71866214 -22000.0 -28155.22667103 -13343.8543261 -22000.0 
-25305.12677962 -16344.85931721 -22000.0 -25633.73016609 -17711.21438347 -22000.0 
1630.0 2069.014260195 -22000.0 6009.0 21230.56273159 -22000.0 
25633.73016609 -17711.21438347 -11780.0 36822.3354625 -21258.71860632 -11780.0 
31618.67751856 -12245.71866214 -11780.0 28155.22667103 -13343.8543261 -11780.0 
31315.12677975 -16344.85931721 -11780.0 36822.3354625 -21258.71860632 -22000.0 
-0.0 42519.43726841 15000.0 -0.0 42519.43726841 -22000.0 
0.5773662835 42518.43724067 -22000.0 0.5773662836 42518.43724067 -11780.0 
5204.235310448 33505.43729613 -11780.0 -25305.12677962 -16344.85931721 15000.0 
31315.12677975 -16344.85931721 15000.0 1630.0 2069.014260195 15000.0 
3005.0 32689.71863421 15000.0 -0.5773662836 42518.43724067 -22000.0 
-5204.235310448 33505.43729613 -11780.0 -0.5773662836 42518.43724067 -11780.0 
-2521.496504797 31055.06870951 -11780.0 3005.0 32689.71863421 -11780.0 
2521.496504797 31055.06870951 -11780.0 6009.0 21230.56273159 -11780.0 
-0.0 -21259.7186343399 15000.0 -30480.0013468478 -14265.996800547 -11780.0 
-31301.7457889984 -16628.1272178434 -11780.0 -30051.2534822316 -18794.0434274968 -11780.0 
-27594.7163126993 -19263.4570736857 -11780.0 25707.7204413046 -14842.3593171048 -22000.0 
-0.0 29684.71863421 -22000.0 -26131.193574321 -14275.4934513165 -22000.0 
1016.2883770297 3343.3995766179 -22000.0 -362.7091223488 3658.1467570514 -22000.0 
-1468.5792546809 2776.2447549566 -22000.0 -1468.579254681 1361.7837654334 -22000.0 
-362.7091223488 479.8817633386 -22000.0 1016.2883770297 794.6289437721 -22000.0 
3746.5502193691 25928.5881097404 -22000.0 -1337.1282921435 27088.9045558906 -22000.0 
-5413.9219272257 23837.7701199474 -22000.0 -5413.9219272257 18623.3553432326 -22000.0 
-1337.1282921435 15372.2209072894 -22000.0 3746.5502193691 16532.5373534396 -22000.0 
30379.4926455835 -14165.926111841 -11780.0 27686.8994316521 -19284.5213170056 -11780.0 
30201.8491191853 -18679.6851331199 -11780.0 18411.4564144839 10629.8593170402 15000.0 
-18411.4564144661 10629.8593170298 15000.0 -26436.5399250646 -13995.4557123435 15000.0 
-28978.802186243 -13415.2009410412 15000.0 -31017.5382277944 -15041.038681134 15000.0 
-31017.5382277944 -17648.679953286 15000.0 -28978.802186243 -19274.5176933788 15000.0 
-26436.5399250646 -18694.2629220765 15000.0 30183.7136343154 -13995.4557123435 15000.0 
27641.451373137 -13415.2009410412 15000.0 25602.7153315856 -15041.038681134 15000.0 
25602.7153315856 -17648.679953286 15000.0 27641.451373137 -19274.5176933788 15000.0 
30183.7136343154 -18694.2629220765 15000.0 1016.2883770297 3343.3995766179 15000.0 
-362.7091223488 3658.1467570514 15000.0 -1468.5792546809 2776.2447549566 15000.0 
-1468.579254681 1361.7837654334 15000.0 -362.7091223488 479.8817633386 15000.0 
1016.2883770297 794.6289437721 15000.0 1873.5868545855 35039.1222390264 15000.0 
-668.6754065387 35619.3770103164 15000.0 -2707.4114480468 33993.5392702583 15000.0 
-2707.4114480468 31385.8979981617 15000.0 -668.6754065388 29760.0602581036 15000.0 
1873.5868545855 30340.3150293936 15000.0 1798.4406619313 35097.1313918218 -11780.0 
-852.3285760479 35571.3086464172 -11780.0 -2818.6485610931 33731.4697028669 -11780.0 
3746.5502193691 25928.5881097404 -11780.0 -1337.1282921435 27088.9045558906 -11780.0 
-5413.9219272257 23837.7701199474 -11780.0 -5413.9219272257 18623.3553432326 -11780.0 
-1337.1282921435 15372.2209072894 -11780.0 3746.5502193691 16532.5373534396 -11780.0 
17216.0976764902 -21259.7186343398 -3500.0 -6843.4322545076 -21259.7186343399 -5401.6140635725 
-2656.4675156569 -11056.7464406474 -22000.0 -1807.3730648195 -2110.7013481401 -22000.0 
-9585.9058946305 -2575.0588146542 -22000.0 9803.4075762051 25539.4372590599 -3500.0 
21833.1725417556 4703.2731354935 -5401.6140636343 3633.1488666039 18742.8146496143 15000.0 
11711.7443887212 -9424.5695829592 15000.0 17751.1677127855 -4459.5029021477 15000.0 
-2905.3661463436 16964.9595308178 15000.0 -12803.9741171388 -6220.933125522 15000.0 
930.7516252038 26946.7202143039 15000.0 -955.2354576298 25899.5056941302 15000.0 
175.8247219586 22138.5000222165 15000.0 -27019.5052527449 -4279.7186249898 -3500.0 
-14989.7402872179 16556.4454985359 -5401.6140636233 -31148.289744013 -15357.5113601402 -9631.3002487724 
-27641.6013938428 -13415.1667038353 12763.2324589652 -30676.0918828636 -18197.4882954324 12761.4090487153 
-30912.5331180754 -17847.3593173152 -9631.3002487708 -31301.7457889985 -16628.127217842 -7475.130202211 
-30041.1549588272 -18801.1912254458 -7476.722853222 -31250.6579984387 -16963.9725152191 -4651.636597414 
-30880.9566676695 -14788.9484304764 -7475.7645794773 -31315.126779754 -16344.85931721 12761.4098617845 
-31020.6446201258 -17642.2097082239 10521.4115479949 -28961.7341185111 -19278.3611284212 10514.6250243823 
-31009.9013801432 -15025.2979858833 10514.6250243824 -31315.1223070572 -16350.0439954118 8235.9531786645 
-30119.1376745194 -13945.3792521182 8222.6204256928 -31005.9977912609 -15017.3411480853 5830.3701017351 
-29434.1135069122 -13557.9831381498 5831.6603005211 -30785.8382216448 -14641.6629525594 3269.8830541535 
-31307.5623733784 -16131.7751505653 3303.0388705615 -28090.3260051407 -13347.9087637487 8313.5135036264 
-30966.194993583 -14939.396175206 563.2756759157 -29544.5674911378 -13605.118247272 569.9328530506 
-30457.1230496984 -18447.3416636174 629.4231311585 -30356.5652908821 -14144.3788196153 -2624.3800822089 
-30180.8114981537 -13993.144265489 12763.1436200502 -28978.4391989312 -13415.1181152141 10535.0121343897 
-31214.561867365 -17115.7560819373 5805.9160089457 -31219.2218927336 -15591.7387268327 -2306.8105676128 
-28113.7655318452 -13346.2817776541 10627.3916329935 -26166.6619736486 -14238.7767866224 12761.0968746661 
-30398.3889682958 -18505.6892577708 -9670.1963863464 -30031.6208372881 -13881.8361321711 -9588.3349496729 
-31216.8171247676 -15582.5101595288 -4730.3219554035 -26.5974243361 35694.6009242538 12761.0605877223 
-2053.1123008506 34883.9736057427 -9469.781263624 -2365.6380138074 30836.6720110433 12761.0022461285 
-2157.33697911 34781.5891269902 12760.1567624858 -668.9601317331 35619.3120090919 10515.989002338 
-2712.1099416127 33983.7374380168 10514.9442708922 -1877.2454627484 35036.199930234 8264.7169553229 
682.1413290091 35616.2709073221 8266.2199160418 -3004.9105494821 32666.532655439 8264.1241409639 
-2713.2010120006 33981.4481989716 5924.3574977592 -2624.8431341123 31226.7683543634 5944.8322461564 
-3002.8110601326 32575.041970736 3464.455578179 -2075.2793478061 30516.4168538377 3495.7820796782 
-2545.2071397298 31092.2376121417 832.0382444203 -2915.9969690208 33415.6571141528 864.9273576111 
-2054.2958949849 30496.5717226128 6447.2726115622 -2647.4195610705 31268.0313733606 -7731.868117384 
141.7710479872 29688.0647617669 10782.8530742374 3e-10 29684.71863421 -16805.6412209681 
-2979.1219700271 33083.2377413722 -2255.9727166807 16.1438442314 35694.6752688877 -2103.5204466471 
-1934.1442352596 30389.9118864131 -2148.0816759904 -971.0548493829 29845.9399016976 830.2218098548 
-2998.586023871 32885.9502765245 12760.1406314859 -2933.0647760655 32036.1468941509 10541.4311234406 
-2702.8816255467 31376.533225259 8262.1260050179 1813.40056851 35085.8829395379 10558.3563913057 
-2466.0062738656 34406.9367500169 3477.1766081003 -1478.930183643 35305.5914353816 5920.2669256137 
-2418.2542760632 34473.5547411161 -5351.7651102844 -379.9146887452 35670.6060573234 -8507.0654262453 
-1848.1811279196 30320.2774514832 -4787.2376406965 -900.4778601033 29822.8100860586 -4897.589376695 
524.387173637 29730.8264272979 -8754.1362137495 -3004.1842960585 32619.706383028 -9671.4672923622 
-1704.7019432308 30215.043648531 -6850.1170289401 29012.7835865115 -19266.5537591755 -9559.0751667569 
25305.126779626 -16344.85931721 12761.4098617845 29351.8778483901 -13526.2107560646 -8549.6800706557 
28283.4144489305 -13339.9780463825 12761.4083679951 25488.7354317141 -17379.1590135996 -7879.0025640789 
26028.7417173539 -14389.0200605903 -9048.2061092777 25707.7204413046 -14842.3593171049 -16805.6412209712 
26176.0351806654 -14229.2794800597 12761.4066029097 27641.4513731377 -13415.2009410411 10516.9409314072 
30194.1390349932 -14003.8076684308 10516.6001239212 25943.874100568 -18197.1209777031 12761.6620658744 
25602.6839704035 -17648.6148291169 10523.6599390048 27643.730166197 -19275.0368807562 10522.4193011925 
25597.9606682898 -15050.9582450422 10517.6950802878 26431.7363860499 -13999.2944535865 8265.1741093651 
25381.5068866453 -15671.6501948359 8267.1678209625 25594.9500208498 -15057.2878944771 5493.3560380423 
25548.1052573729 -15161.1101416488 -6060.671197399 25701.3980934653 -17836.3550906042 -4866.1317210189 
25420.5842628149 -15519.8932309035 -3158.6374664616 25918.7339962615 -18164.5476300127 -1979.8614734312 
[...]
CELL_DATA 739

SCALARS element_states float
LOOKUP_TABLE default
1 1 1 1 1 1 1 1 1 1 1 1 1 1 1 1 1 1 1 1 1 1 1 1 1 1 1 1 1 1 
1 1 1 1 1 1 1 1 1 1 1 1 1 1 1 1 1 1 1 1 1 1 1 1 1 1 1 1 1 1 
1 1 1 1 1 1 1 1 1 1 1 1 1 1 1 1 1 1 1 1 1 1 1 1 1 1 1 1 1 1 
1 1 1 1 1 1 1 1 1 1 1 1 1 1 1 1 1 1 1 1 1 1 1 1 1 1 1 1 1 1 
1 1 1 1 1 1 1 1 1 1 1 1 1 1 1 1 1 1 1 1 1 1 1 1 0 1 1 1 1 1 
1 1 1 1 1 1 1 1 1 1 1 1 0 1 1 1 1 1 1 1 1 1 1 1 1 1 1 1 1 1 
1 1 1 1 1 1 1 1 1 1 1 1 1 1 1 1 1 1 1 1 1 1 1 1 1 1 1 1 1 1 
1 1 1 0 1 1 1 1 1 1 1 1 1 1 1 1 1 1 1 1 1 1 1 1 1 1 1 1 1 0 
1 1 1 1 0 1 1 1 1 1 1 1 1 1 1 1 1 1 1 1 1 1 1 1 1 1 1 1 1 1 
1 1 1 1 1 1 1 1 1 1 1 1 1 1 1 1 1 1 1 1 1 1 1 1 1 1 1 1 1 1 
1 1 1 1 1 1 1 0 1 1 1 1 1 1 1 1 1 1 1 1 1 1 1 1 1 1 1 1 1 1 
1 1 1 1 1 1 1 1 1 1 1 1 1 1 1 1 1 1 1 1 1 1 1 1 1 1 1 1 1 1 
1 1 1 1 1 1 1 1 1 1 1 1 1 1 1 0 1 1 1 1 1 1 1 1 1 0 1 1 1 1 
1 1 1 1 1 1 1 1 1 1 1 1 1 1 1 1 1 1 1 1 1 1 1 1 1 1 1 1 1 1 
1 1 1 1 1 1 1 1 1 1 1 1 1 1 1 1 0 1 1 1 1 1 1 1 1 1 1 1 1 1 
1 1 1 1 1 0 0 1 1 1 1 1 1 1 1 1 1 1 1 1 1 1 1 1 1 1 1 1 1 1 
1 1 1 1 1 1 1 1 1 1 1 1 1 1 1 0 1 1 1 1 1 1 1 1 1 1 1 1 1 1 
1 1 1 1 1 1 1 1 1 1 1 1 1 1 1 1 1 0 1 0 0 0 1 1 1 1 0 1 1 1 
1 1 1 1 1 1 1 1 1 1 1 1 1 1 1 1 1 1 1 1 1 1 1 1 1 1 1 1 1 1 
1 1 1 1 1 1 1 1 1 1 1 1 0 1 1 1 1 1 1 1 1 1 1 1 1 1 1 1 1 1 
1 1 1 1 1 1 1 1 1 1 1 1 1 1 1 1 1 1 1 1 1 1 1 1 1 1 1 1 1 1 
1 1 1 1 1 1 1 1 1 1 1 1 0 0 1 1 1 1 1 0 0 1 1 1 1 1 1 1 1 1 
0 1 1 1 1 1 1 1 1 1 1 1 1 1 1 1 1 1 0 0 0 0 1 0 1 1 0 0 1 1 
1 1 1 1 1 1 1 1 1 1 1 1 1 1 1 1 1 1 1 0 1 1 1 0 1 1 1 1 1 1 
1 1 1 1 1 1 1 1 1 1 1 1 1 0 0 0 0 0 0 

SCALARS sensitivity_number float
LOOKUP_TABLE default
4.360957448811071e-06 3.5318666692638314e-05 4.8062386655846096e-05 5.505686141021369e-05 3.876634657611046e-06 5.871626996885999e-05 
2.871176699765171e-06 0.0011819531163354405 1.4601914680745577e-05 9.078019546770126e-05 3.8104700022975047e-06 4.54035533602323e-06 
6.799144363374266e-05 4.537531656865584e-06 0.0002567076230618442 3.8352207249622095e-06 4.610433324853334e-06 4.753076248509007e-06 
4.542774079202073e-06 2.833062452599154e-06 2.9136973534466e-05 2.3511788354635676e-06 2.8445048444245992e-06 3.487361920765883e-05 
5.682561340777812e-06 3.8409597340034415e-06 5.340064012610038e-06 2.396813656064401e-06 4.888863904239762e-06 5.4686878062552014e-05 
2.9908654292703183e-05 4.439913184715193e-06 6.7652686099270126e-06 2.3058432550726076e-06 2.9705177112152948e-06 4.415482857089057e-06 
3.2381043229464456e-06 3.956040955771576e-06 3.514032104662319e-05 5.549642345613908e-06 5.198186867839504e-06 4.234045997960784e-06 
2.8527678004687414e-06 8.924564588562534e-05 4.574456024710396e-06 4.376282396452413e-06 5.057458123000427e-06 3.737071599232654e-06 
5.799214016638658e-06 5.7185947408959283e-05 5.317945393889888e-05 3.306250603277374e-06 3.3108175495257086e-06 2.4018160443865683e-06 
3.645866977520557e-06 4.86229503520801e-06 3.896884797996586e-06 8.791221502551694e-05 3.448580787148547e-06 1.921438492665532e-06 
2.4601425068459036e-06 5.3361403783536305e-06 2.542517616058157e-05 4.4543301243921266e-06 4.505521228664159e-05 5.171081242547684e-05 
3.820938997373419e-06 4.279440654782277e-06 3.867374066780843e-06 0.00017052891210936113 3.966465943019578e-06 4.6603026059335244e-06 
1.5660785427387224e-06 3.955868328370675e-06 4.874343340678416e-05 4.835384940773896e-06 5.137655884278894e-06 4.8028484463151475e-05 
2.50273806527045e-06 1.20872152495221e-05 3.323561245900086e-06 4.762855111036689e-06 3.686019165638559e-06 5.0734355410887916e-06 
4.457763560070973e-06 4.504979709219752e-06 0.00010786403991254717 3.682342715075957e-05 2.79552613614021e-06 4.407807119654191e-06 
4.205802325132707e-06 2.896213338690264e-06 2.8067460356404877e-05 4.065525577047955e-06 4.0437437354069365e-06 9.091256870363671e-05 
0.0007488350127535086 4.3289808512329805e-05 1.13311347954969e-05 3.5557300329905498e-06 2.2437172200093014e-05 2.4639938351195616e-05 
3.317092428404583e-06 3.4996358326570463e-06 3.854563687024947e-06 3.849236606776075e-06 2.6076195894607216e-06 3.9008677161036916e-05 
1.6598338124709898e-05 3.548074774067985e-06 2.448029746957256e-06 4.443642452007683e-05 6.098939421900404e-06 3.6697188581979078e-06 
2.6479750933104775e-06 3.081853063032181e-06 1.1221179073104579e-05 4.989922185559203e-06 5.4340536846188216e-05 4.329435631032615e-06 
5.602326220515857e-06 3.865963033165535e-06 5.350576802729756e-05 3.4644328029457402e-06 4.185577367544381e-06 4.052407379029744e-06 
2.3796006064651222e-06 1.9522760728875682e-05 4.056599667223818e-06 3.467503888358137e-06 5.444175285683113e-05 6.702475894412843e-06 
8.195630203047761e-05 3.261015627649952e-06 7.988336795145966e-05 1.0799440294237621e-05 1.5956185785797514e-05 6.431238364561348e-06 
6.464810313666106e-06 2.6458269009055505e-06 2.8801075977221948e-06 4.908093467568583e-06 0.0017145212238293304 5.958528007224763e-05 
2.4826502909536137e-06 9.14920002310182e-06 4.4336443270782935e-06 5.892263690799664e-05 3.778622464718752e-06 2.8416483664361232e-06 
5.2260452661209505e-06 3.119340570335632e-06 4.4067013569154525e-05 2.2499275461584545e-06 2.2987199999540076e-06 5.243884269960726e-05 
3.707311943077904e-05 5.0440083261543805e-06 5.10497024855851e-06 4.604882952398063e-06 5.355576661589692e-05 4.588669402806694e-05 
2.5303991560671937e-06 5.07240970331273e-06 2.9960516639516314e-06 2.695255172430011e-06 2.6334759173263275e-06 3.325232920347161e-06 
4.0743315477822064e-06 4.78465429931794e-06 3.951965852381617e-06 2.306607253329942e-06 0.00011057291291162513 0.0017727364852348187 
3.7914837720775904e-06 4.91242858924331e-05 3.105430994272364e-06 4.065596488869458e-06 2.860231926071497e-06 3.5983163759421612e-06 
5.319613495591777e-06 2.237258785660107e-06 2.705184788697572e-06 4.825166991183994e-06 5.199232302878655e-06 4.95802254449229e-06 
0.0014951386286144186 3.1700387070462455e-06 4.838166886730372e-06 3.3904297052021523e-06 4.372800840648329e-06 0.0001264963501225861 
4.428963693855639e-06 2.7609816956962404e-06 2.4212539325674657e-06 8.184958598569724e-05 8.527781053561874e-05 3.4545462153713424e-06 
3.927866559012389e-06 0.000739459884718508 2.1849848207287323e-05 4.981126832850828e-06 2.0581391014982926e-06 3.0847137372123656e-06 
3.487487035279138e-05 5.526860623481645e-05 3.763495465104106e-06 3.7207366547248154e-06 3.060524266467442e-06 2.59458462926451e-06 
0.00012726638020897694 3.69464351481591e-06 4.453493827757095e-06 2.5668336083041806e-06 3.044685933239846e-06 3.2488044662211963e-06 
4.987219009766764e-06 1.7383714970277372e-06 3.816949523424795e-06 9.9823386692322e-06 8.770594612142936e-05 2.508105526767697e-06 
5.186809767942705e-05 2.9760951701818413e-06 4.334022142483141e-06 4.274917373026998e-06 4.434044138170017e-06 5.580852735234988e-06 
3.879758992935857e-06 0.00010610522592669085 2.145322570943675e-05 8.574392637738272e-05 1.221945046730975e-05 4.8702591910211585e-06 
4.182951509641651e-06 2.8481782897036155e-06 2.6375645026872918e-05 2.975737825106893e-06 5.007665050165921e-06 2.6285940499953976e-06 
3.1307227104038055e-06 4.147092462178445e-06 3.505416986341267e-06 0.0001393610060507159 2.5645454827809565e-06 2.9610422147234095e-06 
2.943018607479581e-06 4.156386035385257e-05 2.88001692424234e-06 6.99673649613258e-05 1.7459155493601292e-06 3.0216229441829814e-06 
6.0291425472487e-06 6.817760568244192e-06 2.347597429191285e-06 1.55511061346312e-05 3.309315143895015e-06 3.0292760159960136e-06 
1.6950991683213866e-06 3.911665896926636e-06 0.0012062312719751062 4.372771973454186e-06 3.6759785605065475e-06 8.890553630352846e-05 
2.978935685351555e-06 3.2235362145167668e-06 0.00012292995044472778 5.472691476354353e-06 2.5154478850784916e-06 5.892768596682287e-06 
5.393989585719766e-06 0.0025072516597491492 2.980453159141558e-06 2.8098398364376025e-06 2.398601186865645e-06 5.006194581350877e-06 
2.5818935182169817e-06 3.925770399547399e-06 3.238485465281081e-06 0.0006759145051167809 4.3845206619630745e-05 2.8810052182396906e-05 
0.000515235228522262 3.08792602417207e-06 2.9138328368208525e-06 8.652802272680379e-06 0.002696733783811827 4.343894850932994e-05 
2.264046745672273e-06 2.6183761849206242e-06 2.613964322690189e-06 2.173136299192631e-06 1.989653379482123e-06 5.135205089952456e-06 
4.978483066432998e-06 6.672050663034451e-05 3.326981054170014e-05 3.2058019323669674e-06 5.125909075458534e-06 3.250785988146424e-06 
5.100961009317118e-06 3.1614642317358794e-06 2.7066450379597708e-06 3.908835701070929e-06 3.376066091483396e-06 3.2586779161736762e-06 
1.9413168022524693e-06 2.7142558348322006e-06 4.4369731209692284e-05 4.339062707818735e-06 2.465551834214613e-06 1.8955763786657134e-05 
3.054863199584299e-06 3.946555109629917e-06 3.420840435760243e-05 2.849337422333781e-06 2.973395666941179e-06 4.477104551721148e-05 
8.292594716990946e-05 2.7054662296554184e-06 9.03732206543721e-05 3.651935223971995e-05 2.2024796542868686e-06 3.848917152516e-06 
3.5227689150175836e-05 1.6833848377439173e-06 2.253780698797519e-06 2.401401380984892e-06 2.4916619030078014e-06 2.102081262053665e-06 
4.4718532331135765e-06 2.8687747226678795e-05 2.9223092214556756e-06 3.0079824034491346e-06 2.593382701283737e-06 3.177291974027744e-05 
5.218156702135871e-06 1.9133148722088014e-06 2.921608824333137e-06 2.8895096467591267e-06 2.0442708513754515e-06 5.0201116674733896e-05 
1.6774545512058839e-06 3.867948617868063e-05 3.879960730926787e-06 2.4712180033189913e-06 0.007898532766844445 4.250096045638434e-06 
3.209303246882668e-06 3.675943658695249e-05 2.3293149665002e-05 3.0374236244869047e-06 4.222569910803782e-05 1.9044908231392094e-06 
1.989928062946049e-06 4.406963500388262e-05 5.937335084251823e-05 3.1847885559273727e-05 2.1173931867199372e-06 2.696646867396819e-06 
3.4095983646081435e-05 4.4299143146223875e-05 4.32895299522455e-05 2.1202370616579486e-06 5.185338758507818e-06 5.010230288850844e-06 
3.361162029258027e-05 0.00014426886379832824 7.755052327436139e-06 3.0272699774311343e-05 9.541992180916047e-05 0.00013345288866218092 
3.773873224456333e-06 3.574238813449237e-05 0.009750950192597595 2.1625543317111954e-06 0.0006945622434428106 1.866280577549375e-06 
0.007809592773111345 2.272155104402051e-06 4.997245455915342e-06 3.966793225544599e-05 1.5442161568936622e-06 1.1060777652643126e-06 
0.009850380350323939 2.023104701582491e-06 0.0007052209872869568 3.878848838484831e-05 0.00012036715762968853 2.354687418343209e-06 
3.394097177074113e-06 3.0143387474260048e-06 5.167636069728007e-05 4.7709878038993374e-05 6.224196192677469e-05 5.1794486095858104e-05 
5.616575040362944e-05 6.321739937747749e-05 4.03466152173297e-05 6.322320173703393e-05 3.861014508702944e-06 2.8642052536605925e-06 
2.5904985861291714e-06 3.1276719698853523e-06 2.6450792383376046e-06 3.0280797067245123e-06 4.754002419295441e-05 3.362425532375461e-06 
3.3967494691586004e-06 3.019603112917978e-06 3.141117733102115e-06 6.227473896539035e-05 4.871954161660206e-05 4.93349589855927e-05 
5.4957161196407706e-05 0.00038730690797371815 6.061447784214505e-05 6.184476053992673e-05 5.759325240356012e-05 0.005799550180257473 
5.635904041793701e-05 7.206346004846248e-05 5.4989586635749e-05 6.819092547400689e-05 1.5546803125501573e-06 2.4809154671331863e-06 
1.7919645635997752e-06 2.5460357466177895e-06 3.917301783400946e-06 4.930896378815586e-06 2.6507833566078227e-06 2.432512007308961e-06 
1.1761389854217649e-05 1.9216553088280825e-06 4.990038944503499e-06 5.9418218501872085e-05 1.6368923158426611e-06 1.7762088653522496e-06 
2.4797908771902404e-06 2.3629042212456864e-06 2.936670356904689e-06 3.250643977910407e-05 6.92666187332196e-05 0.0019005783699971334 
2.8648225356134287e-06 3.0619506838856733e-06 2.414207573047595e-06 2.8536472616610884e-06 2.984025288700916e-06 4.5317241506990025e-05 
5.483372225002704e-05 0.005662808445212299 3.081754288481332e-06 3.3483682223593517e-06 4.248913112118776e-06 1.8684701570080746e-06 
2.231673866688384e-06 4.969628143723466e-05 4.827587998617448e-05 7.937748287537086e-05 5.233485581590395e-05 0.006124489033693238 
0.007954308734856502 2.0621704903807374e-05 3.2389499338984514e-06 2.9096660977596086e-06 2.508734463706338e-06 2.424174032570042e-06 
3.859591819598126e-06 4.017702662287362e-06 3.726415900959912e-06 3.9075429797324756e-06 1.905283274953841e-06 3.9403319556283245e-05 
4.696136700762332e-05 0.0006709263488843207 0.00013556015461938743 8.718860455952674e-05 3.895911173188221e-06 1.802187124707947e-05 
3.8988142393099754e-06 8.679309203893944e-06 6.037266852301888e-06 6.4899720832915515e-06 2.865705902991163e-06 3.094981841543215e-06 
4.277662898008077e-06 3.1776982853480095e-06 4.8920630296708354e-06 6.727461059062923e-06 6.841659883325449e-06 1.142139762132759e-05 
1.0366798534879475e-05 5.519943122215059e-06 3.75580324073567e-06 2.2361040862162283e-06 4.651679956040053e-06 3.929695638786819e-06 
7.480995769067695e-05 8.915148680715026e-06 7.2842510780329535e-06 5.797255221407186e-06 5.568527335451917e-06 3.960209296451534e-06 
8.296896367622361e-06 2.531686941639692e-06 3.2051091166410245e-05 5.0033617659910225e-05 2.462618165709835e-06 2.9210669630828805e-06 
2.28108028495487e-06 2.7470060191829575e-06 2.322471662796125e-06 2.9642819669423565e-06 2.8248746102281503e-06 2.4823592256287347e-06 
2.46495714701522e-06 2.6834565238346868e-06 6.207029709131643e-06 5.287345657100878e-06 4.7056202614589316e-05 5.178208825980402e-05 
3.062404626217912e-06 3.0975367489439203e-06 3.907500692839967e-06 4.082984647472376e-06 3.1894592084466942e-06 2.53731179579157e-06 
3.7450212465942346e-06 2.536856160875216e-06 2.007953783089156e-06 1.812423647034662e-06 3.171919860016783e-06 2.9012741148183134e-06 
9.864935392048744e-05 3.97226702273103e-06 2.2925467568360675e-06 1.898679938008023e-06 1.3057454921144162e-05 0.0014103661622053376 
8.046965553425283e-06 1.791693584125242e-05 2.4997514807833504e-06 6.302272902031788e-05 1.1475828864394283e-05 5.743172653616104e-06 
2.965080546248517e-06 3.0343455009196696e-06 2.832257910857351e-06 4.199005446612404e-06 2.7032938483541976e-06 5.636208574360543e-05 
4.949796993933342e-05 2.464902231410018e-06 2.2386577557527086e-06 2.794188526720609e-06 8.298136458442813e-05 3.4438165747931156e-06 
3.0084228496955712e-06 0.00011789709784078409 2.5212248918348406e-06 3.88449680454494e-06 3.058220716026656e-06 0.002287440165487584 
0.0024096255123767503 4.763006831357534e-05 4.089925856743385e-05 4.671737055491243e-06 6.206380538297881e-06 2.4128364839856197e-06 
2.62147395812555e-06 4.5497630580530595e-06 5.876579490350731e-06 3.7768134721903848e-06 2.8021576354330454e-06 8.75299488643796e-05 
2.666084558291624e-06 1.628622694696209e-06 3.0495071832987304e-06 6.40183128753642e-06 5.955366025987785e-06 2.14448507811143e-06 
1.8730484538518924e-06 6.862446718600174e-05 7.64455839060554e-05 0.0011874281277272263 6.0086600583762166e-05 7.040296365176938e-05 
2.7520875929913794e-06 6.961782461648452e-05 6.430632624805493e-05 6.763036201353212e-05 0.005878807559198378 5.527469684505391e-05 
5.698386974308656e-05 0.0001253540267323363 0.0004136028140222403 0.00036037409744446857 0.0007632812811645841 5.704140262463437e-05 
6.0528760568515707e-05 5.182386848317683e-05 5.416115031760899e-05 5.750027534722602e-05 0.005901333394681024 5.2394477944308904e-06 
2.883565656236046e-06 1.9230085891363602e-05 1.97580576902893e-06 1.585701164099217e-05 5.3763605844228775e-05 3.6093062642790433e-06 
2.187313886780364e-06 1.7759183579369927e-06 2.824163236484072e-06 2.6698803462349632e-06 3.901948961545873e-05 4.378105887832489e-05 
2.7596894222168557e-06 2.101648423242705e-05 4.012507181835168e-06 3.0224155562518586e-06 7.868633544921466e-05 2.9434524220561992e-06 
8.851636643167551e-05 0.00010868930264054483 0.00014058083889577382 0.0001425987236151937 3.934563292711122e-06 3.961282632636754e-06 
7.68776072283475e-06 3.883758524077829e-06 0.0010294308605269086 5.025548325282752e-05 4.743496722130647e-05 0.0005633887941051947 
0.001498628557633004 0.0006765974533389416 4.6154013404091326e-05 0.0014414972925964374 6.869932249386014e-05 6.518779992267756e-05 
1.8364331273195916e-06 2.059945663464432e-06 2.2971362637091766e-06 1.5826835709506473e-06 2.5975618966174025e-06 2.8085646089303975e-06 
2.859930249493124e-06 2.465204671708063e-06 2.500488409558288e-06 4.841907610867875e-06 4.926676523896817e-06 4.906526977683295e-06 
5.185787570707099e-06 3.0982767948121377e-06 3.3128273254358507e-06 2.8772517219976223e-06 3.0207998866234956e-06 3.832629840898631e-06 
2.2363798240003816e-06 4.909617282556651e-06 5.198470181218391e-06 4.62585819105876e-06 4.793998867825918e-06 4.565247324783346e-06 
4.704339688682348e-06 0.00041597681598596703 2.764350354572684e-06 0.00043157767937945525 6.86226051650773e-05 7.981757202241972e-05 
2.590013025294891e-05 3.738277100234988e-05 2.849239616761684e-06 2.887090258763186e-06 0.00010288655679457575 2.980681244170052e-06 
1.8945898681080705e-06 2.0006585833923024e-06 1.9397965840136583e-06 2.049629772894247e-06 5.135346647910099e-06 2.096876969640578e-06 
5.506226191762545e-05 5.9537830247335165e-05 2.3414609453958016e-06 2.3258756082703027e-06 5.354935147761986e-05 7.224686467327379e-05 
6.589457176814631e-05 2.781462312251792e-06 0.0013578309999320625 0.002732630483850581 0.00010065868649154594 0.0001329344801180747 
2.300786432806063e-06 0.0004610467351213859 0.0006059368877144306 1.6904834760273034e-06 0.0005216769275929657 2.705721204518769e-06 
3.144740401142832e-06 2.6957236770432335e-06 2.849966969267557e-06 2.9240838057599432e-06 2.6971853445119005e-06 3.02466271877819e-06 
2.6040607667799136e-06 2.0410637910818317e-06 1.6499382648647802e-06 1.9556661698202207e-06 2.6642662398354405e-06 1.91176767378789e-06 
2.7234742989471438e-06 2.369398654370355e-06 3.3165756251016754e-06 3.590519934362634e-06 4.504271191148527e-06 2.9202034843106383e-06 
2.7339766602569013e-06 3.137421308659767e-06 2.939348563347085e-06 1.8964908401680363e-06 0.0004611224375451494 0.00012654269007122303 
8.639167961624241e-05 0.00011637799414389046 7.861156970652287e-05 9.461190706466488e-05 6.139336485918812e-05 8.262474694269984e-06 
6.284243887728026e-06 2.033347678544036e-06 2.061827592692424e-06 2.1502094686914218e-06 2.20535071774559e-06 2.2556353145534992e-06 
2.319992009236369e-06 

SCALARS FI=stress_von_Mises/450000000.0 float
LOOKUP_TABLE default
0 0 0 0 0 0 
0 0 0 0 0 0 
0 0 0 0 0 0 
0 0 0 0 0 0 
0 0 0 0 0 0 
0 0 0 0 0 0 
0 0 0 0 0 0 
0 0 0 0 0 0 
0 0 0 0 0 0 
0 0 0 0 0 0 
0 0 0 0 0 0 
0 0 0 0 0 0 
0 0 0 0 0 0 
0 0 0 0 0 0 
0 0 0 0 0 0 
0 0 0 0 0 0 
0 0 0 0 0 0 
0 0 0 0 0 0 
0 0 0 0 0 0 
0 0 0 0 0 0 
0 0 0 0 0 0 
0 0 0 0 0 0 
0 0 0 0 0 0 
0 0 0 0 0 0 
7.773999762052023e-18 0 0 0 0 0 
0 0 0 0 0 0 
0 0 0 0 0 0 
3.3411872360861623e-18 0 0 0 0 0 
0 0 0 0 0 0 
0 0 0 0 0 0 
0 0 0 0 0 0 
0 0 0 0 0 0 
0 0 0 0 0 0 
0 0 0 0 0 0 
0 0 0 0 0 0 
0 0 0 2.9238091835710434e-18 0 0 
0 0 0 0 0 0 
0 0 0 0 0 0 
0 0 0 0 0 0 
0 0 0 0 0 7.269701285371695e-18 
0 0 0 0 4.1283087063180944e-18 0 
0 0 0 0 0 0 
0 0 0 0 0 0 
0 0 0 0 0 0 
0 0 0 0 0 0 
0 0 0 0 0 0 
0 0 0 0 0 0 
0 0 0 0 0 0 
0 0 0 0 0 0 
0 0 0 0 0 0 
0 0 0 0 0 0 
0 4.523423623981868e-18 0 0 0 0 
0 0 0 0 0 0 
0 0 0 0 0 0 
0 0 0 0 0 0 
0 0 0 0 0 0 
0 0 0 0 0 0 
0 0 0 0 0 0 
0 0 0 0 0 0 
0 0 0 0 0 0 
0 0 0 0 0 0 
0 0 0 0 0 0 
0 0 0 5.9924376526263196e-18 0 0 
0 0 0 0 0 0 
0 3.658639063746681e-15 0 0 0 0 
0 0 0 0 0 0 
0 0 0 0 0 0 
0 0 0 0 0 0 
0 0 0 0 0 0 
0 0 0 0 0 0 
0 0 0 0 0 0 
0 0 0 0 0 0 
0 0 0 0 3.3977708028960794e-14 0 
0 0 0 0 0 0 
0 0 0 0 0 0 
0 0 0 0 0 3.4819026350136906e-18 
3.362148422360106e-18 0 0 0 0 0 
0 0 0 0 0 0 
0 0 0 0 0 0 
0 0 0 0 0 0 
0 0 0 0 0 0 
0 0 0 0 0 0 
0 0 0 3.4501466268281097e-18 0 0 
0 0 0 0 0 0 
0 0 0 0 0 0 
0 0 0 0 0 0 
0 0 0 0 0 0 
0 0 0 0 0 2.9211619994084606e-18 
0 3.549004853035551e-18 2.5854400226594705e-18 3.3734185576304778e-15 0 0 
0 0 3.2634046819785012e-18 0 0 0 
0 0 0 0 0 0 
0 0 0 0 0 0 
0 0 0 0 0 0 
0 0 0 0 0 0 
0 0 0 0 0 0 
0 0 0 0 0 0 
0 0 0 0 0 0 
2.5048093709271734e-18 0 0 0 0 0 
0 0 0 0 0 0 
0 0 0 0 0 0 
0 0 0 0 0 0 
0 0 0 0 0 0 
0 0 0 0 0 0 
0 0 0 0 0 0 