
                        S T E P       1


                                INCREMENT     1


 stresses (elem, integ.pnt.,sxx,syy,szz,sxy,sxz,syz) for set SOLIDMATERIALELEMENTGEOMETRY2D and time  0.1000000E+01

       261   1  5.907734E+01  1.249446E-01  1.092207E-02 -1.959973E-01 -1.624100E-03 -1.636162E-03 _shell_0000000261   
       261   2  5.903023E+01  7.387065E-02 -1.539654E-02 -1.967484E-01 -1.627495E-03  1.636001E-03 _shell_0000000261   
       261   3  5.650717E+01  1.287837E-01  1.220479E-03 -2.001723E-01  1.625975E-03 -1.634473E-03 _shell_0000000261   
       261   4  5.645370E+01  6.966585E-02 -4.571096E-02 -1.991208E-01  1.619760E-03  1.631790E-03 _shell_0000000261   
       261   5  5.907734E+01  1.249446E-01  1.092207E-02 -1.959973E-01  1.624100E-03  1.636162E-03 _shell_0000000261   
       261   6  5.903023E+01  7.387065E-02 -1.539654E-02 -1.967484E-01  1.627495E-03 -1.636001E-03 _shell_0000000261   
       261   7  5.650717E+01  1.287837E-01  1.220479E-03 -2.001723E-01 -1.625975E-03  1.634473E-03 _shell_0000000261   
       261   8  5.645370E+01  6.966585E-02 -4.571096E-02 -1.991208E-01 -1.619760E-03 -1.631790E-03 _shell_0000000261   
       262   1  5.469204E+01  1.990194E-01  6.422034E-03 -4.305695E-01  8.284598E-04  8.293653E-04 _shell_0000000262   
       262   2  5.475741E+01  1.588549E-01  1.590507E-02 -4.305865E-01  8.380243E-04 -8.388282E-04 _shell_0000000262   
       262   3  5.205572E+01  1.979303E-01 -2.838862E-02 -4.443528E-01 -8.381735E-04  8.389775E-04 _shell_0000000262   
       262   4  5.212122E+01  1.603057E-01 -1.034116E-02 -4.458059E-01 -8.306401E-04 -8.315480E-04 _shell_0000000262   
       262   5  5.469204E+01  1.990194E-01  6.422034E-03 -4.305695E-01 -8.284598E-04 -8.293653E-04 _shell_0000000262   
       262   6  5.475741E+01  1.588549E-01  1.590507E-02 -4.305865E-01 -8.380243E-04  8.388282E-04 _shell_0000000262   
       262   7  5.205572E+01  1.979303E-01 -2.838862E-02 -4.443528E-01  8.381735E-04 -8.389775E-04 _shell_0000000262   
       262   8  5.212122E+01  1.603057E-01 -1.034116E-02 -4.458059E-01  8.306401E-04  8.315480E-04 _shell_0000000262   
       263   1  5.018673E+01  3.462792E-01  1.148408E-02 -5.260021E-01  7.500787E-04  7.481130E-04 _shell_0000000263   
       263   2  5.023220E+01  2.556072E-01  1.305312E-02 -5.262878E-01  7.556650E-04 -7.546105E-04 _shell_0000000263   
       263   3  4.754578E+01  3.453021E-01 -1.830438E-02 -5.347614E-01 -7.557672E-04  7.547126E-04 _shell_0000000263   
       263   4  4.759198E+01  2.571748E-01 -8.646152E-03 -5.361617E-01 -7.515883E-04 -7.496186E-04 _shell_0000000263   
       263   5  5.018673E+01  3.462792E-01  1.148408E-02 -5.260021E-01 -7.500787E-04 -7.481130E-04 _shell_0000000263   
       263   6  5.023220E+01  2.556072E-01  1.305312E-02 -5.262878E-01 -7.556650E-04  7.546105E-04 _shell_0000000263   
       263   7  4.754578E+01  3.453021E-01 -1.830438E-02 -5.347614E-01  7.557672E-04 -7.547126E-04 _shell_0000000263   
       263   8  4.759198E+01  2.571748E-01 -8.646152E-03 -5.361617E-01  7.515883E-04  7.496186E-04 _shell_0000000263   
       264   1  5.483097E+01  8.144712E-02 -2.844415E-03 -5.230428E-01  1.367379E-03 -1.368888E-03 _shell_0000000264   
       264   2  5.218973E+01  8.496554E-02 -8.410517E-03 -5.356609E-01 -1.358002E-03 -1.363525E-03 _shell_0000000264   
       264   3  5.479864E+01  1.308226E-01  1.566514E-02 -5.232765E-01  1.355248E-03  1.360760E-03 _shell_0000000264   
       264   4  5.215183E+01  1.275060E-01 -7.334579E-03 -5.344871E-01 -1.368359E-03  1.369869E-03 _shell_0000000264   
       264   5  5.483097E+01  8.144712E-02 -2.844415E-03 -5.230428E-01 -1.367379E-03  1.368888E-03 _shell_0000000264   
       264   6  5.218973E+01  8.496554E-02 -8.410517E-03 -5.356609E-01  1.358002E-03  1.363525E-03 _shell_0000000264   
       264   7  5.479864E+01  1.308226E-01  1.566514E-02 -5.232765E-01 -1.355248E-03 -1.360760E-03 _shell_0000000264   
       264   8  5.215183E+01  1.275060E-01 -7.334579E-03 -5.344871E-01  1.368359E-03 -1.369869E-03 _shell_0000000264   
       265   1  5.027630E+01  7.698311E-02 -2.787959E-03 -6.164864E-01  1.065435E-03  1.066920E-03 _shell_0000000265   
       265   2  5.030276E+01  4.998439E-02  3.557728E-03 -6.165137E-01  1.069894E-03 -1.069655E-03 _shell_0000000265   
       265   3  4.761386E+01  7.440944E-02 -5.804360E-03 -6.213965E-01 -1.070010E-03  1.069771E-03 _shell_0000000265   
       265   4  4.764437E+01  5.262992E-02  1.396876E-02 -6.221383E-01 -1.066791E-03 -1.068279E-03 _shell_0000000265   
       265   5  5.027630E+01  7.698311E-02 -2.787959E-03 -6.164864E-01 -1.065435E-03 -1.066920E-03 _shell_0000000265   
       265   6  5.030276E+01  4.998439E-02  3.557728E-03 -6.165137E-01 -1.069894E-03  1.069655E-03 _shell_0000000265   
       265   7  4.761386E+01  7.440944E-02 -5.804360E-03 -6.213965E-01  1.070010E-03 -1.069771E-03 _shell_0000000265   
       265   8  4.764437E+01  5.262992E-02  1.396876E-02 -6.221383E-01  1.066791E-03  1.068279E-03 _shell_0000000265   
       266   1  3.467432E+01 -3.737046E-01 -4.921166E-03 -2.955772E-01  2.194733E-03  2.194734E-03 _shell_0000000266   
       266   2  3.466773E+01 -8.031754E-01  1.173060E-02 -2.955772E-01  2.194735E-03 -2.194734E-03 _shell_0000000266   
       266   3  3.169941E+01 -3.802888E-01 -5.823779E-02 -2.955778E-01 -2.194735E-03  2.194734E-03 _shell_0000000266   
       266   4  3.170600E+01 -7.965914E-01 -1.086006E-02 -2.955779E-01 -2.194734E-03 -2.194734E-03 _shell_0000000266   
       266   5  3.467432E+01 -3.737046E-01 -4.921166E-03 -2.955772E-01 -2.194733E-03 -2.194734E-03 _shell_0000000266   
       266   6  3.466773E+01 -8.031754E-01  1.173060E-02 -2.955772E-01 -2.194735E-03  2.194734E-03 _shell_0000000266   
       266   7  3.169941E+01 -3.802888E-01 -5.823779E-02 -2.955778E-01  2.194735E-03 -2.194734E-03 _shell_0000000266   
       266   8  3.170600E+01 -7.965914E-01 -1.086006E-02 -2.955779E-01  2.194734E-03  2.194734E-03 _shell_0000000266   
       267   1  2.997585E+01  1.978254E-01  7.784532E-02  2.396403E-01 -4.920616E-04  4.920614E-04 _shell_0000000267   
       267   2  2.717150E+01  1.963490E-01 -2.863103E-05  2.396382E-01  4.920609E-04  4.920613E-04 _shell_0000000267   
       267   3  2.997437E+01  2.475728E-01 -2.155069E-02  2.396402E-01 -4.920607E-04 -4.920611E-04 _shell_0000000267   
       267   4  2.717297E+01  2.490493E-01 -9.253519E-02  2.396383E-01  4.920615E-04 -4.920614E-04 _shell_0000000267   
       267   5  2.997585E+01  1.978254E-01  7.784532E-02  2.396403E-01  4.920616E-04 -4.920614E-04 _shell_0000000267   
       267   6  2.717150E+01  1.963490E-01 -2.863103E-05  2.396382E-01 -4.920609E-04 -4.920613E-04 _shell_0000000267   
       267   7  2.997437E+01  2.475728E-01 -2.155069E-02  2.396402E-01  4.920607E-04  4.920611E-04 _shell_0000000267   
       267   8  2.717297E+01  2.490493E-01 -9.253519E-02  2.396383E-01 -4.920615E-04  4.920614E-04 _shell_0000000267   
       268   1 -1.289562E+01  1.169648E+00  4.829077E-01  8.022332E+00  9.274492E-05 -9.274492E-05 _shell_0000000268   
       268   2 -1.268265E+01  1.169370E+00  1.206314E-01  8.022332E+00 -9.274492E-05 -9.274492E-05 _shell_0000000268   
       268   3 -1.289590E+01  1.420737E+00 -1.184856E-01  8.022332E+00  9.274492E-05  9.274492E-05 _shell_0000000268   
       268   4 -1.268237E+01  1.421015E+00 -4.794634E-01  8.022332E+00 -9.274492E-05  9.274492E-05 _shell_0000000268   
       268   5 -1.289562E+01  1.169648E+00  4.829077E-01  8.022332E+00 -9.274492E-05  9.274492E-05 _shell_0000000268   
       268   6 -1.268265E+01  1.169370E+00  1.206314E-01  8.022332E+00  9.274492E-05  9.274492E-05 _shell_0000000268   
       268   7 -1.289590E+01  1.420737E+00 -1.184856E-01  8.022332E+00 -9.274492E-05 -9.274492E-05 _shell_0000000268   
       268   8 -1.268237E+01  1.421015E+00 -4.794634E-01  8.022332E+00  9.274492E-05 -9.274492E-05 _shell_0000000268   
       269   1 -1.030867E+01  2.530686E+00  5.096814E-01  9.603745E+00  6.787062E-03 -6.787062E-03 _shell_0000000269   
       269   2 -1.037581E+01  2.510324E+00  8.449795E-02  9.603745E+00 -6.787062E-03 -6.787062E-03 _shell_0000000269   
       269   3 -1.032903E+01  2.398178E+00 -1.736276E-01  9.603745E+00  6.787062E-03  6.787062E-03 _shell_0000000269   
       269   4 -1.035545E+01  2.418539E+00 -5.037922E-01  9.603745E+00 -6.787062E-03  6.787062E-03 _shell_0000000269   
       269   5 -1.030867E+01  2.530686E+00  5.096814E-01  9.603745E+00 -6.787062E-03  6.787062E-03 _shell_0000000269   
       269   6 -1.037581E+01  2.510324E+00  8.449795E-02  9.603745E+00  6.787062E-03  6.787062E-03 _shell_0000000269   
       269   7 -1.032903E+01  2.398178E+00 -1.736276E-01  9.603745E+00 -6.787062E-03 -6.787062E-03 _shell_0000000269   
       269   8 -1.035545E+01  2.418539E+00 -5.037922E-01  9.603745E+00  6.787062E-03 -6.787062E-03 _shell_0000000269   
       270   1 -1.164796E+01  2.529112E+00  4.525040E-01  1.027266E+01  6.360930E-03 -6.360930E-03 _shell_0000000270   
       270   2 -1.076856E+01  2.510030E+00  8.085816E-02  1.027266E+01 -6.360930E-03 -6.360930E-03 _shell_0000000270   
       270   3 -1.166704E+01  2.945708E+00 -7.934695E-02  1.027266E+01  6.360930E-03  6.360930E-03 _shell_0000000270   
       270   4 -1.074948E+01  2.964791E+00 -3.619398E-01  1.027266E+01 -6.360930E-03  6.360930E-03 _shell_0000000270   
       270   5 -1.164796E+01  2.529112E+00  4.525040E-01  1.027266E+01 -6.360930E-03  6.360930E-03 _shell_0000000270   
       270   6 -1.076856E+01  2.510030E+00  8.085816E-02  1.027266E+01  6.360930E-03  6.360930E-03 _shell_0000000270   
       270   7 -1.166704E+01  2.945708E+00 -7.934695E-02  1.027266E+01 -6.360930E-03 -6.360930E-03 _shell_0000000270   
       270   8 -1.074948E+01  2.964791E+00 -3.619398E-01  1.027266E+01  6.360930E-03 -6.360930E-03 _shell_0000000270   
       271   1 -9.578641E+00  4.160195E+00 -1.802841E-02  1.170255E+01  9.198148E-03  9.198148E-03 _shell_0000000271   
       271   2 -9.551046E+00  3.983262E+00  4.431825E-01  1.170255E+01  9.198148E-03 -9.198148E-03 _shell_0000000271   
       271   3 -9.198421E+00  4.187790E+00 -3.043799E-01  1.170255E+01 -9.198148E-03  9.198148E-03 _shell_0000000271   
       271   4 -9.226015E+00  3.955668E+00  2.805693E-02  1.170255E+01 -9.198148E-03 -9.198148E-03 _shell_0000000271   
       271   5 -9.578641E+00  4.160195E+00 -1.802841E-02  1.170255E+01 -9.198148E-03 -9.198148E-03 _shell_0000000271   
       271   6 -9.551046E+00  3.983262E+00  4.431825E-01  1.170255E+01 -9.198148E-03  9.198148E-03 _shell_0000000271   
       271   7 -9.198421E+00  4.187790E+00 -3.043799E-01  1.170255E+01  9.198148E-03 -9.198148E-03 _shell_0000000271   
       271   8 -9.226015E+00  3.955668E+00  2.805693E-02  1.170255E+01  9.198148E-03  9.198148E-03 _shell_0000000271   
       272   1 -7.695483E+00  4.859255E+00  4.194364E-01  1.327804E+01  1.757854E-02 -1.757854E-02 _shell_0000000272   
       272   2 -8.292926E+00  4.806520E+00 -8.238314E-02  1.327804E+01 -1.757854E-02 -1.757854E-02 _shell_0000000272   
       272   3 -7.748219E+00  4.769539E+00 -3.853524E-02  1.327804E+01  1.757854E-02  1.757854E-02 _shell_0000000272   
       272   4 -8.240190E+00  4.822275E+00 -2.942552E-01  1.327804E+01 -1.757854E-02  1.757854E-02 _shell_0000000272   
       272   5 -7.695483E+00  4.859255E+00  4.194364E-01  1.327804E+01 -1.757854E-02  1.757854E-02 _shell_0000000272   
       272   6 -8.292926E+00  4.806520E+00 -8.238314E-02  1.327804E+01  1.757854E-02  1.757854E-02 _shell_0000000272   
       272   7 -7.748219E+00  4.769539E+00 -3.853524E-02  1.327804E+01 -1.757854E-02 -1.757854E-02 _shell_0000000272   
       272   8 -8.240190E+00  4.822275E+00 -2.942552E-01  1.327804E+01  1.757854E-02 -1.757854E-02 _shell_0000000272   
       273   1 -4.833574E+00  5.037287E+00 -4.839522E-02  1.200247E+01  1.568675E-03 -1.568675E-03 _shell_0000000273   
       273   2 -1.940600E+00  5.032581E+00 -6.974664E-02  1.200247E+01 -1.568675E-03 -1.568675E-03 _shell_0000000273   
       273   3 -4.838280E+00  6.692540E+00  2.327648E-01  1.200247E+01  1.568674E-03  1.568675E-03 _shell_0000000273   
       273   4 -1.935894E+00  6.697246E+00  2.333748E-01  1.200247E+01 -1.568675E-03  1.568675E-03 _shell_0000000273   
       273   5 -4.833574E+00  5.037287E+00 -4.839522E-02  1.200247E+01 -1.568675E-03  1.568675E-03 _shell_0000000273   
       273   6 -1.940600E+00  5.032581E+00 -6.974664E-02  1.200247E+01  1.568675E-03  1.568675E-03 _shell_0000000273   
       273   7 -4.838280E+00  6.692540E+00  2.327648E-01  1.200247E+01 -1.568675E-03 -1.568675E-03 _shell_0000000273   
       273   8 -1.935894E+00  6.697246E+00  2.333748E-01  1.200247E+01  1.568675E-03 -1.568675E-03 _shell_0000000273   
       274   1 -5.811525E-06 -5.374091E-07 -1.451502E-07  2.734474E-06 -1.995651E-09  1.995651E-09 _shell_0000000274   
       274   2 -5.551449E-06 -5.433961E-07 -2.464802E-07  2.734474E-06  1.995651E-09  1.995651E-09 _shell_0000000274   
       274   3 -5.817512E-06 -6.532880E-08  2.618901E-07  2.734474E-06 -1.995651E-09 -1.995651E-09 _shell_0000000274   
       274   4 -5.545463E-06 -5.934185E-08  1.884992E-07  2.734474E-06  1.995651E-09 -1.995651E-09 _shell_0000000274   
       274   5 -5.811525E-06 -5.374091E-07 -1.451502E-07  2.734474E-06  1.995651E-09 -1.995651E-09 _shell_0000000274   
       274   6 -5.551449E-06 -5.433961E-07 -2.464802E-07  2.734474E-06 -1.995651E-09 -1.995651E-09 _shell_0000000274   
       274   7 -5.817512E-06 -6.532880E-08  2.618901E-07  2.734474E-06  1.995651E-09  1.995651E-09 _shell_0000000274   
       274   8 -5.545463E-06 -5.934185E-08  1.884992E-07  2.734474E-06 -1.995651E-09  1.995651E-09 _shell_0000000274   
       275   1 -3.941212E-06 -1.820796E-07  1.491051E-07  2.325482E-06  1.360182E-09 -1.360182E-09 _shell_0000000275   
       275   2 -4.232112E-06 -1.861601E-07  2.509422E-07  2.325482E-06 -1.360182E-09 -1.360182E-09 _shell_0000000275   
       275   3 -3.945293E-06 -6.020572E-07 -2.253016E-07  2.325482E-06  1.360182E-09  1.360182E-09 _shell_0000000275   
       275   4 -4.228031E-06 -5.979767E-07 -1.044219E-07  2.325482E-06 -1.360182E-09  1.360182E-09 _shell_0000000275   
       275   5 -3.941212E-06 -1.820796E-07  1.491051E-07  2.325482E-06 -1.360182E-09  1.360182E-09 _shell_0000000275   
       275   6 -4.232112E-06 -1.861601E-07  2.509422E-07  2.325482E-06  1.360182E-09  1.360182E-09 _shell_0000000275   
       275   7 -3.945293E-06 -6.020572E-07 -2.253016E-07  2.325482E-06 -1.360182E-09 -1.360182E-09 _shell_0000000275   
       275   8 -4.228031E-06 -5.979767E-07 -1.044219E-07  2.325482E-06  1.360182E-09 -1.360182E-09 _shell_0000000275   
       276   1 -6.105799E-06 -4.867738E-07  1.528138E-07  4.398751E-06  1.819621E-09 -1.819621E-09 _shell_0000000276   
       276   2 -6.117274E-06 -4.922326E-07  2.746376E-07  4.398751E-06 -1.819621E-09 -1.819621E-09 _shell_0000000276   
       276   3 -6.111258E-06 -1.023271E-06 -2.624618E-07  4.398751E-06  1.819621E-09  1.819621E-09 _shell_0000000276   
       276   4 -6.111815E-06 -1.017812E-06 -1.151633E-07  4.398751E-06 -1.819621E-09  1.819621E-09 _shell_0000000276   
       276   5 -6.105799E-06 -4.867738E-07  1.528138E-07  4.398751E-06 -1.819621E-09  1.819621E-09 _shell_0000000276   
       276   6 -6.117274E-06 -4.922326E-07  2.746376E-07  4.398751E-06  1.819621E-09  1.819621E-09 _shell_0000000276   
       276   7 -6.111258E-06 -1.023271E-06 -2.624618E-07  4.398751E-06 -1.819621E-09 -1.819621E-09 _shell_0000000276   
       276   8 -6.111815E-06 -1.017812E-06 -1.151633E-07  4.398751E-06  1.819621E-09 -1.819621E-09 _shell_0000000276   
       277   1 -4.578772E-06 -1.198060E-06 -2.521569E-07  3.784386E-06  1.299333E-09  1.299333E-09 _shell_0000000277   
       277   2 -4.574874E-06 -7.254145E-07  1.137257E-07  3.784386E-06  1.299333E-09 -1.299333E-09 _shell_0000000277   
       277   3 -4.568385E-06 -1.194162E-06 -7.665753E-08  3.784386E-06 -1.299333E-09  1.299333E-09 _shell_0000000277   
       277   4 -4.572283E-06 -7.293125E-07  2.710344E-07  3.784386E-06 -1.299333E-09 -1.299333E-09 _shell_0000000277   
       277   5 -4.578772E-06 -1.198060E-06 -2.521569E-07  3.784386E-06 -1.299333E-09 -1.299333E-09 _shell_0000000277   
       277   6 -4.574874E-06 -7.254145E-07  1.137257E-07  3.784386E-06 -1.299333E-09  1.299333E-09 _shell_0000000277   
       277   7 -4.568385E-06 -1.194162E-06 -7.665753E-08  3.784386E-06  1.299333E-09 -1.299333E-09 _shell_0000000277   
       277   8 -4.572283E-06 -7.293125E-07  2.710344E-07  3.784386E-06  1.299333E-09  1.299333E-09 _shell_0000000277   
       278   1  3.168471E+01 -1.239110E+00 -4.537724E-03 -3.228160E-01 -3.878451E-03  3.878451E-03 _shell_0000000278   
       278   2  3.462262E+01 -1.227475E+00 -6.746393E-03 -3.228159E-01  3.878451E-03  3.878451E-03 _shell_0000000278   
       278   3  3.169634E+01 -1.949808E+00  1.286860E-02 -3.228160E-01 -3.878451E-03 -3.878451E-03 _shell_0000000278   
       278   4  3.461099E+01 -1.961444E+00 -4.363843E-02 -3.228159E-01  3.878451E-03 -3.878451E-03 _shell_0000000278   
       278   5  3.168471E+01 -1.239110E+00 -4.537724E-03 -3.228160E-01  3.878451E-03 -3.878451E-03 _shell_0000000278   
       278   6  3.462262E+01 -1.227475E+00 -6.746393E-03 -3.228159E-01 -3.878451E-03 -3.878451E-03 _shell_0000000278   
       278   7  3.169634E+01 -1.949808E+00  1.286860E-02 -3.228160E-01  3.878451E-03  3.878451E-03 _shell_0000000278   
       278   8  3.461099E+01 -1.961444E+00 -4.363843E-02 -3.228159E-01 -3.878451E-03  3.878451E-03 _shell_0000000278   
       279   1  2.951564E+01 -2.090795E+00 -2.135264E-02 -3.386432E-01  5.307782E-03 -5.307782E-03 _shell_0000000279   
       279   2  2.656399E+01 -2.074872E+00 -2.008446E-02 -3.386434E-01 -5.307781E-03 -5.307782E-03 _shell_0000000279   
       279   3  2.953156E+01 -1.143021E+00  5.662335E-03 -3.386432E-01  5.307781E-03  5.307782E-03 _shell_0000000279   
       279   4  2.654807E+01 -1.158945E+00 -6.737842E-02 -3.386433E-01 -5.307782E-03  5.307782E-03 _shell_0000000279   
       279   5  2.951564E+01 -2.090795E+00 -2.135264E-02 -3.386432E-01 -5.307782E-03  5.307782E-03 _shell_0000000279   
       279   6  2.656399E+01 -2.074872E+00 -2.008446E-02 -3.386434E-01  5.307781E-03  5.307782E-03 _shell_0000000279   
       279   7  2.953156E+01 -1.143021E+00  5.662335E-03 -3.386432E-01 -5.307781E-03 -5.307782E-03 _shell_0000000279   
       279   8  2.654807E+01 -1.158945E+00 -6.737842E-02 -3.386433E-01  5.307782E-03 -5.307782E-03 _shell_0000000279   
       280   1  2.967590E+01 -1.215324E-01  2.571830E-03 -8.838156E-02  2.474756E-03  2.474757E-03 _shell_0000000280   
       280   2  2.966848E+01 -5.674209E-01  5.464571E-02 -8.838157E-02  2.474757E-03 -2.474757E-03 _shell_0000000280   
       280   3  2.680368E+01 -1.289567E-01 -8.989925E-02 -8.838185E-02 -2.474757E-03  2.474757E-03 _shell_0000000280   
       280   4  2.681110E+01 -5.599967E-01 -3.178842E-03 -8.838188E-02 -2.474756E-03 -2.474757E-03 _shell_0000000280   
       280   5  2.967590E+01 -1.215324E-01  2.571830E-03 -8.838156E-02 -2.474756E-03 -2.474757E-03 _shell_0000000280   
       280   6  2.966848E+01 -5.674209E-01  5.464571E-02 -8.838157E-02 -2.474757E-03  2.474757E-03 _shell_0000000280   
       280   7  2.680368E+01 -1.289567E-01 -8.989925E-02 -8.838185E-02  2.474757E-03 -2.474757E-03 _shell_0000000280   
       280   8  2.681110E+01 -5.599967E-01 -3.178842E-03 -8.838188E-02  2.474756E-03  2.474757E-03 _shell_0000000280   
       281   1  3.036115E+01  3.993150E-01  7.598022E-02  4.578019E-01 -1.082418E-03  1.082415E-03 _shell_0000000281   
       281   2  2.767400E+01  3.960671E-01  4.384879E-02  4.577932E-01  1.082411E-03  1.082414E-03 _shell_0000000281   
       281   3  3.035787E+01  2.331824E-01 -3.588934E-02  4.578011E-01 -1.082410E-03 -1.082413E-03 _shell_0000000281   
       281   4  2.767723E+01  2.364307E-01 -5.286462E-02  4.577929E-01  1.082417E-03 -1.082415E-03 _shell_0000000281   
       281   5  3.036115E+01  3.993150E-01  7.598022E-02  4.578019E-01  1.082418E-03 -1.082415E-03 _shell_0000000281   
       281   6  2.767400E+01  3.960671E-01  4.384879E-02  4.577932E-01 -1.082411E-03 -1.082414E-03 _shell_0000000281   
       281   7  3.035787E+01  2.331824E-01 -3.588934E-02  4.578011E-01  1.082410E-03  1.082413E-03 _shell_0000000281   
       281   8  2.767723E+01  2.364307E-01 -5.286462E-02  4.577929E-01 -1.082417E-03  1.082415E-03 _shell_0000000281   
       282   1  2.215736E+01 -1.016551E-01 -9.044766E-02  3.042175E-01  6.979633E-04  6.979633E-04 _shell_0000000282   
       282   2  2.215946E+01  2.762126E-01 -1.897690E-01  3.042176E-01  6.979633E-04 -6.979633E-04 _shell_0000000282   
       282   3  2.493058E+01 -9.956124E-02  9.825701E-02  3.042178E-01 -6.979634E-04  6.979633E-04 _shell_0000000282   
       282   4  2.492849E+01  2.741187E-01 -1.083591E-02  3.042177E-01 -6.979632E-04 -6.979633E-04 _shell_0000000282   
       282   5  2.215736E+01 -1.016551E-01 -9.044766E-02  3.042175E-01 -6.979633E-04 -6.979633E-04 _shell_0000000282   
       282   6  2.215946E+01  2.762126E-01 -1.897690E-01  3.042176E-01 -6.979634E-04  6.979633E-04 _shell_0000000282   
       282   7  2.493058E+01 -9.956124E-02  9.825701E-02  3.042178E-01  6.979633E-04 -6.979633E-04 _shell_0000000282   
       282   8  2.492849E+01  2.741187E-01 -1.083591E-02  3.042177E-01  6.979632E-04  6.979633E-04 _shell_0000000282   
       283   1  2.541467E+01  6.331756E-01  1.269078E-01  7.660075E-01 -2.890798E-03  2.890797E-03 _shell_0000000283   
       283   2  2.304380E+01  6.245032E-01  7.785365E-02  7.660063E-01  2.890795E-03  2.890797E-03 _shell_0000000283   
       283   3  2.540600E+01  4.126242E-01 -3.773998E-02  7.660075E-01 -2.890795E-03 -2.890796E-03 _shell_0000000283   
       283   4  2.305247E+01  4.212966E-01 -4.632290E-02  7.660063E-01  2.890798E-03 -2.890797E-03 _shell_0000000283   
       283   5  2.541467E+01  6.331756E-01  1.269078E-01  7.660075E-01  2.890798E-03 -2.890797E-03 _shell_0000000283   
       283   6  2.304380E+01  6.245032E-01  7.785365E-02  7.660063E-01 -2.890795E-03 -2.890797E-03 _shell_0000000283   
       283   7  2.540600E+01  4.126242E-01 -3.773998E-02  7.660075E-01  2.890795E-03  2.890796E-03 _shell_0000000283   
       283   8  2.305247E+01  4.212966E-01 -4.632290E-02  7.660063E-01 -2.890798E-03  2.890797E-03 _shell_0000000283   
       284   1  2.153979E+01  5.333604E-01  3.957732E-02  1.135687E+00 -7.579548E-03  7.579546E-03 _shell_0000000284   
       284   2  1.981141E+01  5.106217E-01  5.227002E-02  1.135687E+00  7.579543E-03  7.579545E-03 _shell_0000000284   
       284   3  2.151705E+01  3.687903E-01 -4.257531E-02  1.135687E+00 -7.579541E-03 -7.579543E-03 _shell_0000000284   
       284   4  1.983414E+01  3.915291E-01  7.623133E-02  1.135687E+00  7.579547E-03 -7.579545E-03 _shell_0000000284   
       284   5  2.153979E+01  5.333604E-01  3.957732E-02  1.135687E+00  7.579548E-03 -7.579546E-03 _shell_0000000284   
       284   6  1.981141E+01  5.106217E-01  5.227002E-02  1.135687E+00 -7.579543E-03 -7.579545E-03 _shell_0000000284   
       284   7  2.151705E+01  3.687903E-01 -4.257531E-02  1.135687E+00  7.579541E-03  7.579543E-03 _shell_0000000284   
       284   8  1.983414E+01  3.915291E-01  7.623133E-02  1.135687E+00 -7.579547E-03  7.579545E-03 _shell_0000000284   
       285   1  2.017134E+01 -1.649923E+00  4.920105E-02  1.987096E-01  2.067533E-04 -2.067533E-04 _shell_0000000285   
       285   2  1.726049E+01 -1.649303E+00 -4.085046E-01  1.987096E-01 -2.067533E-04 -2.067533E-04 _shell_0000000285   
       285   3  2.017196E+01 -8.919288E-02 -2.132324E-02  1.987096E-01  2.067533E-04  2.067533E-04 _shell_0000000285   
       285   4  1.725987E+01 -8.981313E-02 -4.819235E-01  1.987096E-01 -2.067533E-04  2.067533E-04 _shell_0000000285   
       285   5  2.017134E+01 -1.649923E+00  4.920105E-02  1.987096E-01 -2.067533E-04  2.067533E-04 _shell_0000000285   
       285   6  1.726049E+01 -1.649303E+00 -4.085046E-01  1.987096E-01  2.067533E-04  2.067533E-04 _shell_0000000285   
       285   7  2.017196E+01 -8.919288E-02 -2.132324E-02  1.987096E-01 -2.067533E-04 -2.067533E-04 _shell_0000000285   
       285   8  1.725987E+01 -8.981313E-02 -4.819235E-01  1.987096E-01  2.067533E-04 -2.067533E-04 _shell_0000000285   
       286   1  2.095474E+01  5.647825E-01 -4.738824E-02  1.221237E+00 -5.370969E-03 -5.370969E-03 _shell_0000000286   
       286   2  2.097085E+01  1.012462E+00  2.819568E-01  1.221237E+00 -5.370970E-03  5.370969E-03 _shell_0000000286   
       286   3  1.965432E+01  5.808954E-01  5.604913E-02  1.221237E+00  5.370970E-03 -5.370969E-03 _shell_0000000286   
       286   4  1.963820E+01  9.963489E-01  3.102006E-01  1.221237E+00  5.370969E-03  5.370969E-03 _shell_0000000286   
       286   5  2.095474E+01  5.647825E-01 -4.738824E-02  1.221237E+00  5.370969E-03  5.370969E-03 _shell_0000000286   
       286   6  2.097085E+01  1.012462E+00  2.819568E-01  1.221237E+00  5.370970E-03 -5.370969E-03 _shell_0000000286   
       286   7  1.965432E+01  5.808954E-01  5.604913E-02  1.221237E+00 -5.370970E-03  5.370969E-03 _shell_0000000286   
       286   8  1.963820E+01  9.963489E-01  3.102006E-01  1.221237E+00 -5.370969E-03 -5.370969E-03 _shell_0000000286   
       287   1  1.839319E+01  2.224554E-01  5.180031E-02  6.206137E-01 -8.076412E-03 -8.076411E-03 _shell_0000000287   
       287   2  1.841743E+01  9.067747E-02 -9.292920E-02  6.206138E-01 -8.076414E-03  8.076413E-03 _shell_0000000287   
       287   3  1.659532E+01  2.466847E-01  1.557006E-01  6.206136E-01  8.076413E-03 -8.076412E-03 _shell_0000000287   
       287   4  1.657109E+01  6.644816E-02 -1.020989E-01  6.206136E-01  8.076413E-03  8.076412E-03 _shell_0000000287   
       287   5  1.839319E+01  2.224554E-01  5.180031E-02  6.206137E-01  8.076412E-03  8.076411E-03 _shell_0000000287   
       287   6  1.841743E+01  9.067747E-02 -9.292920E-02  6.206138E-01  8.076414E-03 -8.076413E-03 _shell_0000000287   
       287   7  1.659532E+01  2.466847E-01  1.557006E-01  6.206136E-01 -8.076414E-03  8.076412E-03 _shell_0000000287   
       287   8  1.657109E+01  6.644816E-02 -1.020989E-01  6.206136E-01 -8.076413E-03 -8.076412E-03 _shell_0000000287   
       288   1 -1.592274E+01 -6.516626E+00  4.308395E-01  1.182455E+01  5.795026E-02 -5.795026E-02 _shell_0000000288   
       288   2 -1.734445E+01 -6.690477E+00 -1.582465E-01  1.182455E+01 -5.795026E-02 -5.795026E-02 _shell_0000000288   
       288   3 -1.609659E+01 -4.863007E+00 -1.853545E-01  1.182455E+01  5.795026E-02  5.795026E-02 _shell_0000000288   
       288   4 -1.717060E+01 -4.689156E+00  3.686316E-02  1.182455E+01 -5.795026E-02  5.795026E-02 _shell_0000000288   
       288   5 -1.592274E+01 -6.516626E+00  4.308395E-01  1.182455E+01 -5.795026E-02  5.795026E-02 _shell_0000000288   
       288   6 -1.734445E+01 -6.690477E+00 -1.582465E-01  1.182455E+01  5.795026E-02  5.795026E-02 _shell_0000000288   
       288   7 -1.609659E+01 -4.863007E+00 -1.853545E-01  1.182455E+01 -5.795026E-02 -5.795026E-02 _shell_0000000288   
       288   8 -1.717060E+01 -4.689156E+00  3.686316E-02  1.182455E+01  5.795026E-02 -5.795026E-02 _shell_0000000288   
       289   1  2.355811E+01  4.629482E+00 -1.345086E-02  6.133889E+00  1.347933E-01  1.347933E-01 _shell_0000000289   
       289   2  2.315373E+01  1.157581E+00 -4.240176E-01  6.133889E+00  1.347933E-01 -1.347933E-01 _shell_0000000289   
       289   3  2.264680E+01  4.225102E+00 -1.325797E+00  6.133889E+00 -1.347933E-01  1.347933E-01 _shell_0000000289   
       289   4  2.305118E+01  1.561961E+00  1.507421E-01  6.133889E+00 -1.347933E-01 -1.347933E-01 _shell_0000000289   
       289   5  2.355811E+01  4.629482E+00 -1.345086E-02  6.133889E+00 -1.347933E-01 -1.347933E-01 _shell_0000000289   
       289   6  2.315373E+01  1.157581E+00 -4.240176E-01  6.133889E+00 -1.347933E-01  1.347933E-01 _shell_0000000289   
       289   7  2.264680E+01  4.225102E+00 -1.325797E+00  6.133889E+00  1.347933E-01 -1.347933E-01 _shell_0000000289   
       289   8  2.305118E+01  1.561961E+00  1.507421E-01  6.133889E+00  1.347933E-01  1.347933E-01 _shell_0000000289   
       290   1 -1.755966E+01 -5.516824E+00  7.227898E-02  1.166892E+01 -4.304224E-03  4.304224E-03 _shell_0000000290   
       290   2 -1.776341E+01 -5.503911E+00 -3.030849E-02  1.166892E+01  4.304224E-03  4.304224E-03 _shell_0000000290   
       290   3 -1.754674E+01 -4.741030E+00  5.566141E-02  1.166892E+01 -4.304224E-03 -4.304224E-03 _shell_0000000290   
       290   4 -1.777632E+01 -4.753943E+00 -1.071852E-01  1.166892E+01  4.304224E-03 -4.304224E-03 _shell_0000000290   
       290   5 -1.755966E+01 -5.516824E+00  7.227898E-02  1.166892E+01  4.304224E-03 -4.304224E-03 _shell_0000000290   
       290   6 -1.776341E+01 -5.503911E+00 -3.030849E-02  1.166892E+01 -4.304224E-03 -4.304224E-03 _shell_0000000290   
       290   7 -1.754674E+01 -4.741030E+00  5.566141E-02  1.166892E+01  4.304224E-03  4.304224E-03 _shell_0000000290   
       290   8 -1.777632E+01 -4.753943E+00 -1.071852E-01  1.166892E+01 -4.304224E-03  4.304224E-03 _shell_0000000290   
       291   1  2.311505E+01  4.243327E+00  2.188231E-01  9.206244E+00 -1.605236E-02  1.605236E-02 _shell_0000000291   
       291   2  2.317741E+01  4.195170E+00  9.923605E-01  9.206244E+00  1.605236E-02  1.605236E-02 _shell_0000000291   
       291   3  2.306689E+01  1.293682E+00 -2.803455E-01  9.206244E+00 -1.605236E-02 -1.605236E-02 _shell_0000000291   
       291   4  2.322557E+01  1.341839E+00  7.179250E-01  9.206244E+00  1.605236E-02 -1.605236E-02 _shell_0000000291   
       291   5  2.311505E+01  4.243327E+00  2.188231E-01  9.206244E+00  1.605236E-02 -1.605236E-02 _shell_0000000291   
       291   6  2.317741E+01  4.195170E+00  9.923605E-01  9.206244E+00 -1.605236E-02 -1.605236E-02 _shell_0000000291   
       291   7  2.306689E+01  1.293682E+00 -2.803455E-01  9.206244E+00  1.605236E-02  1.605236E-02 _shell_0000000291   
       291   8  2.322557E+01  1.341839E+00  7.179250E-01  9.206244E+00 -1.605236E-02  1.605236E-02 _shell_0000000291   