
                        S T E P       1


                                INCREMENT     1


 stresses (elem, integ.pnt.,sxx,syy,szz,sxy,sxz,syz) for set SOLIDMATERIALELEMENTGEOMETRY2D and time  0.1000000E+01

       261   1  5.716082E+01  2.867408E-02 -7.627454E-03 -4.064166E-02 -2.062175E-03 -2.077490E-03 _shell_0000000261   
       261   2  5.711676E+01  1.334170E-02 -1.167956E-02 -4.142380E-02 -2.066486E-03  2.077285E-03 _shell_0000000261   
       261   3  5.484545E+01  3.407856E-02  7.344513E-03 -4.463853E-02  2.064556E-03 -2.075345E-03 _shell_0000000261   
       261   4  5.479204E+01  7.856588E-03 -2.366597E-02 -4.379978E-02  2.056665E-03  2.071939E-03 _shell_0000000261   
       261   5  5.716082E+01  2.867408E-02 -7.627454E-03 -4.064166E-02  2.062175E-03  2.077490E-03 _shell_0000000261   
       261   6  5.711676E+01  1.334170E-02 -1.167956E-02 -4.142380E-02  2.066486E-03 -2.077285E-03 _shell_0000000261   
       261   7  5.484545E+01  3.407856E-02  7.344513E-03 -4.463853E-02 -2.064556E-03  2.075345E-03 _shell_0000000261   
       261   8  5.479204E+01  7.856588E-03 -2.366597E-02 -4.379978E-02 -2.056665E-03 -2.071939E-03 _shell_0000000261   
       262   1  5.311278E+01  4.970719E-02 -1.377914E-02 -1.052284E-01  1.068934E-04  1.070102E-04 _shell_0000000262   
       262   2  5.317829E+01  7.837929E-02  1.954298E-02 -1.045957E-01  1.081275E-04 -1.082312E-04 _shell_0000000262   
       262   3  5.076535E+01  5.046963E-02 -2.598834E-02 -1.171629E-01 -1.081467E-04  1.082505E-04 _shell_0000000262   
       262   4  5.082717E+01  7.766863E-02  6.054993E-03 -1.177867E-01 -1.071747E-04 -1.072919E-04 _shell_0000000262   
       262   5  5.311278E+01  4.970719E-02 -1.377914E-02 -1.052284E-01 -1.068934E-04 -1.070102E-04 _shell_0000000262   
       262   6  5.317829E+01  7.837929E-02  1.954298E-02 -1.045957E-01 -1.081275E-04  1.082312E-04 _shell_0000000262   
       262   7  5.076535E+01  5.046963E-02 -2.598834E-02 -1.171629E-01  1.081467E-04 -1.082505E-04 _shell_0000000262   
       262   8  5.082717E+01  7.766863E-02  6.054993E-03 -1.177867E-01  1.071747E-04  1.072919E-04 _shell_0000000262   
       263   1  4.907104E+01  1.039317E-01 -9.316039E-03 -1.205837E-01 -1.050189E-04 -1.047436E-04 _shell_0000000263   
       263   2  4.911795E+01  1.231819E-01  1.532200E-02 -1.201494E-01 -1.058010E-04  1.056533E-04 _shell_0000000263   
       263   3  4.671645E+01  1.051638E-01 -1.669810E-02 -1.280565E-01  1.058153E-04 -1.056676E-04 _shell_0000000263   
       263   4  4.675939E+01  1.221417E-01  4.310675E-03 -1.285859E-01  1.052302E-04  1.049544E-04 _shell_0000000263   
       263   5  4.907104E+01  1.039317E-01 -9.316039E-03 -1.205837E-01  1.050189E-04  1.047436E-04 _shell_0000000263   
       263   6  4.911795E+01  1.231819E-01  1.532200E-02 -1.201494E-01  1.058010E-04 -1.056533E-04 _shell_0000000263   
       263   7  4.671645E+01  1.051638E-01 -1.669810E-02 -1.280565E-01 -1.058153E-04  1.056676E-04 _shell_0000000263   
       263   8  4.675939E+01  1.221417E-01  4.310675E-03 -1.285859E-01 -1.052302E-04 -1.049544E-04 _shell_0000000263   
       264   1  5.317011E+01  7.511698E-02  6.863126E-03 -1.516395E-01  5.459682E-04 -5.465706E-04 _shell_0000000264   
       264   2  5.081385E+01  7.624335E-02 -3.804941E-04 -1.624728E-01 -5.422240E-04 -5.444292E-04 _shell_0000000264   
       264   3  5.313647E+01  6.048704E-02  5.092472E-04 -1.521988E-01  5.411246E-04  5.433254E-04 _shell_0000000264   
       264   4  5.077925E+01  5.946535E-02 -1.289354E-02 -1.617896E-01 -5.463596E-04  5.469624E-04 _shell_0000000264   
       264   5  5.317011E+01  7.511698E-02  6.863126E-03 -1.516395E-01 -5.459682E-04  5.465706E-04 _shell_0000000264   
       264   6  5.081385E+01  7.624335E-02 -3.804941E-04 -1.624728E-01  5.422240E-04  5.444292E-04 _shell_0000000264   
       264   7  5.313647E+01  6.048704E-02  5.092472E-04 -1.521988E-01 -5.411246E-04 -5.433254E-04 _shell_0000000264   
       264   8  5.077925E+01  5.946535E-02 -1.289354E-02 -1.617896E-01  5.463596E-04 -5.469625E-04 _shell_0000000264   
       265   1  4.906509E+01  1.091984E-01 -3.278971E-03 -2.072686E-01  3.155754E-04  3.160154E-04 _shell_0000000265   
       265   2  4.909305E+01  1.333214E-01  1.154750E-02 -2.070529E-01  3.168961E-04 -3.168254E-04 _shell_0000000265   
       265   3  4.669120E+01  1.088333E-01 -1.363581E-02 -2.114236E-01 -3.169306E-04  3.168599E-04 _shell_0000000265   
       265   4  4.671897E+01  1.338388E-01  4.284689E-03 -2.118348E-01 -3.159773E-04 -3.164179E-04 _shell_0000000265   
       265   5  4.906509E+01  1.091984E-01 -3.278971E-03 -2.072686E-01 -3.155754E-04 -3.160154E-04 _shell_0000000265   
       265   6  4.909305E+01  1.333214E-01  1.154750E-02 -2.070529E-01 -3.168961E-04  3.168254E-04 _shell_0000000265   
       265   7  4.669120E+01  1.088333E-01 -1.363581E-02 -2.114236E-01  3.169306E-04 -3.168599E-04 _shell_0000000265   
       265   8  4.671897E+01  1.338388E-01  4.284689E-03 -2.118348E-01  3.159773E-04  3.164178E-04 _shell_0000000265   
       266   1  3.556134E+01  4.544381E-01  1.353083E-02 -3.609885E-01  1.502896E-03  1.502896E-03 _shell_0000000266   
       266   2  3.555683E+01  1.458511E-01  4.638835E-02 -3.609885E-01  1.502896E-03 -1.502896E-03 _shell_0000000266   
       266   3  3.295223E+01  4.499295E-01 -9.449731E-02 -3.609890E-01 -1.502896E-03  1.502896E-03 _shell_0000000266   
       266   4  3.295674E+01  1.503597E-01 -4.059951E-02 -3.609891E-01 -1.502896E-03 -1.502896E-03 _shell_0000000266   
       266   5  3.556134E+01  4.544381E-01  1.353083E-02 -3.609885E-01 -1.502896E-03 -1.502896E-03 _shell_0000000266   
       266   6  3.555683E+01  1.458511E-01  4.638835E-02 -3.609885E-01 -1.502896E-03  1.502896E-03 _shell_0000000266   
       266   7  3.295223E+01  4.499295E-01 -9.449731E-02 -3.609890E-01  1.502896E-03 -1.502896E-03 _shell_0000000266   
       266   8  3.295674E+01  1.503597E-01 -4.059951E-02 -3.609891E-01  1.502896E-03  1.502896E-03 _shell_0000000266   
       267   1  3.169300E+01  1.112546E+00  1.100291E-01  4.463467E-01 -2.390120E-03  2.390119E-03 _shell_0000000267   
       267   2  2.935019E+01  1.105376E+00 -3.272691E-03  4.463450E-01  2.390117E-03  2.390119E-03 _shell_0000000267   
       267   3  3.168582E+01  8.891578E-01 -2.188146E-02  4.463465E-01 -2.390116E-03 -2.390118E-03 _shell_0000000267   
       267   4  2.935735E+01  8.963285E-01 -1.017211E-01  4.463450E-01  2.390120E-03 -2.390119E-03 _shell_0000000267   
       267   5  3.169300E+01  1.112546E+00  1.100291E-01  4.463467E-01  2.390120E-03 -2.390119E-03 _shell_0000000267   
       267   6  2.935019E+01  1.105376E+00 -3.272691E-03  4.463450E-01 -2.390117E-03 -2.390119E-03 _shell_0000000267   
       267   7  3.168582E+01  8.891578E-01 -2.188146E-02  4.463465E-01  2.390116E-03  2.390118E-03 _shell_0000000267   
       267   8  2.935735E+01  8.963285E-01 -1.017211E-01  4.463450E-01 -2.390120E-03  2.390119E-03 _shell_0000000267   
       268   1 -1.217870E+01  7.913111E-01  2.797962E-01  6.338837E+00  4.637788E-04 -4.637788E-04 _shell_0000000268   
       268   2 -1.077282E+01  7.899198E-01  1.796896E-01  6.338837E+00 -4.637788E-04 -4.637788E-04 _shell_0000000268   
       268   3 -1.218009E+01  5.515702E-01 -1.744319E-01  6.338837E+00  4.637788E-04  4.637788E-04 _shell_0000000268   
       268   4 -1.077142E+01  5.529615E-01 -2.680456E-01  6.338837E+00 -4.637788E-04  4.637788E-04 _shell_0000000268   
       268   5 -1.217870E+01  7.913111E-01  2.797962E-01  6.338837E+00 -4.637788E-04  4.637788E-04 _shell_0000000268   
       268   6 -1.077282E+01  7.899198E-01  1.796896E-01  6.338837E+00  4.637788E-04  4.637788E-04 _shell_0000000268   
       268   7 -1.218009E+01  5.515702E-01 -1.744319E-01  6.338837E+00 -4.637788E-04 -4.637788E-04 _shell_0000000268   
       268   8 -1.077142E+01  5.529615E-01 -2.680456E-01  6.338837E+00  4.637788E-04 -4.637788E-04 _shell_0000000268   
       269   1 -1.035653E+01  1.142390E+00  2.708801E-01  6.731321E+00  1.334353E-03 -1.334353E-03 _shell_0000000269   
       269   2 -8.983752E+00  1.138387E+00  1.717277E-01  6.731321E+00 -1.334353E-03 -1.334353E-03 _shell_0000000269   
       269   3 -1.036054E+01  8.693607E-01 -1.925861E-01  6.731321E+00  1.334353E-03  1.334353E-03 _shell_0000000269   
       269   4 -8.979749E+00  8.733637E-01 -2.730576E-01  6.731321E+00 -1.334353E-03  1.334353E-03 _shell_0000000269   
       269   5 -1.035653E+01  1.142390E+00  2.708801E-01  6.731321E+00 -1.334353E-03  1.334353E-03 _shell_0000000269   
       269   6 -8.983752E+00  1.138387E+00  1.717277E-01  6.731321E+00  1.334353E-03  1.334353E-03 _shell_0000000269   
       269   7 -1.036054E+01  8.693607E-01 -1.925861E-01  6.731321E+00 -1.334353E-03 -1.334353E-03 _shell_0000000269   
       269   8 -8.979749E+00  8.733637E-01 -2.730576E-01  6.731321E+00  1.334353E-03 -1.334353E-03 _shell_0000000269   
       270   1 -9.509832E+00  1.139884E+00  2.651688E-01  8.103429E+00  2.903752E-03 -2.903752E-03 _shell_0000000270   
       270   2 -7.905274E+00  1.131173E+00  1.769145E-01  8.103429E+00 -2.903752E-03 -2.903752E-03 _shell_0000000270   
       270   3 -9.518544E+00  9.138964E-01 -1.694870E-01  8.103429E+00  2.903752E-03  2.903752E-03 _shell_0000000270   
       270   4 -7.896562E+00  9.226077E-01 -2.170887E-01  8.103429E+00 -2.903752E-03  2.903752E-03 _shell_0000000270   
       270   5 -9.509832E+00  1.139884E+00  2.651688E-01  8.103429E+00 -2.903752E-03  2.903752E-03 _shell_0000000270   
       270   6 -7.905274E+00  1.131173E+00  1.769145E-01  8.103429E+00  2.903752E-03  2.903752E-03 _shell_0000000270   
       270   7 -9.518544E+00  9.138964E-01 -1.694870E-01  8.103429E+00 -2.903752E-03 -2.903752E-03 _shell_0000000270   
       270   8 -7.896562E+00  9.226077E-01 -2.170887E-01  8.103429E+00  2.903752E-03 -2.903752E-03 _shell_0000000270   
       271   1 -7.812695E+00  1.306499E+00 -1.507334E-01  8.420994E+00  3.119764E-03  3.119764E-03 _shell_0000000271   
       271   2 -7.803335E+00  1.469119E+00  2.503843E-01  8.420994E+00  3.119764E-03 -3.119764E-03 _shell_0000000271   
       271   3 -6.420616E+00  1.315859E+00 -2.117365E-01  8.420994E+00 -3.119764E-03  3.119764E-03 _shell_0000000271   
       271   4 -6.429975E+00  1.459760E+00  1.457045E-01  8.420994E+00 -3.119764E-03 -3.119764E-03 _shell_0000000271   
       271   5 -7.812695E+00  1.306499E+00 -1.507334E-01  8.420994E+00 -3.119764E-03 -3.119764E-03 _shell_0000000271   
       271   6 -7.803335E+00  1.469119E+00  2.503843E-01  8.420994E+00 -3.119764E-03  3.119764E-03 _shell_0000000271   
       271   7 -6.420616E+00  1.315859E+00 -2.117365E-01  8.420994E+00  3.119764E-03 -3.119764E-03 _shell_0000000271   
       271   8 -6.429975E+00  1.459760E+00  1.457045E-01  8.420994E+00  3.119764E-03  3.119764E-03 _shell_0000000271   
       272   1 -6.099682E+00  1.852779E+00  2.651912E-01  8.888898E+00  4.141322E-03 -4.141322E-03 _shell_0000000272   
       272   2 -5.131931E+00  1.840355E+00  9.799533E-02  8.888898E+00 -4.141322E-03 -4.141322E-03 _shell_0000000272   
       272   3 -6.112106E+00  1.699011E+00 -1.505663E-01  8.888898E+00  4.141322E-03  4.141322E-03 _shell_0000000272   
       272   4 -5.119507E+00  1.711435E+00 -2.597837E-01  8.888898E+00 -4.141322E-03  4.141322E-03 _shell_0000000272   
       272   5 -6.099682E+00  1.852779E+00  2.651912E-01  8.888898E+00 -4.141322E-03  4.141322E-03 _shell_0000000272   
       272   6 -5.131931E+00  1.840355E+00  9.799533E-02  8.888898E+00  4.141322E-03  4.141322E-03 _shell_0000000272   
       272   7 -6.112106E+00  1.699011E+00 -1.505663E-01  8.888898E+00 -4.141322E-03 -4.141322E-03 _shell_0000000272   
       272   8 -5.119507E+00  1.711435E+00 -2.597837E-01  8.888898E+00  4.141322E-03 -4.141322E-03 _shell_0000000272   
       273   1 -2.384446E+00  1.449036E+00  5.937723E-02  1.030748E+01  3.883929E-03 -3.883929E-03 _shell_0000000273   
       273   2 -5.277915E-01  1.437384E+00  8.381001E-02  1.030748E+01 -3.883929E-03 -3.883929E-03 _shell_0000000273   
       273   3 -2.396098E+00  1.796051E+00 -5.508890E-02  1.030748E+01  3.883929E-03  3.883929E-03 _shell_0000000273   
       273   4 -5.161397E-01  1.807703E+00  2.371890E-02  1.030748E+01 -3.883929E-03  3.883929E-03 _shell_0000000273   
       273   5 -2.384446E+00  1.449036E+00  5.937723E-02  1.030748E+01 -3.883929E-03  3.883929E-03 _shell_0000000273   
       273   6 -5.277915E-01  1.437384E+00  8.381001E-02  1.030748E+01  3.883929E-03  3.883929E-03 _shell_0000000273   
       273   7 -2.396098E+00  1.796051E+00 -5.508890E-02  1.030748E+01 -3.883929E-03 -3.883929E-03 _shell_0000000273   
       273   8 -5.161397E-01  1.807703E+00  2.371890E-02  1.030748E+01  3.883929E-03 -3.883929E-03 _shell_0000000273   
       274   1 -5.404450E-06 -4.401104E-07 -1.372511E-07  2.423094E-06 -1.636502E-09  1.636502E-09 _shell_0000000274   
       274   2 -5.144955E-06 -4.450199E-07 -2.155602E-07  2.423094E-06  1.636502E-09  1.636502E-09 _shell_0000000274   
       274   3 -5.409360E-06 -2.522729E-08  2.261897E-07  2.423094E-06 -1.636502E-09 -1.636502E-09 _shell_0000000274   
       274   4 -5.140046E-06 -2.031779E-08  1.707916E-07  2.423094E-06  1.636502E-09 -1.636502E-09 _shell_0000000274   
       274   5 -5.404450E-06 -4.401104E-07 -1.372511E-07  2.423094E-06  1.636502E-09 -1.636502E-09 _shell_0000000274   
       274   6 -5.144955E-06 -4.450199E-07 -2.155602E-07  2.423094E-06 -1.636502E-09 -1.636502E-09 _shell_0000000274   
       274   7 -5.409360E-06 -2.522729E-08  2.261897E-07  2.423094E-06  1.636502E-09  1.636502E-09 _shell_0000000274   
       274   8 -5.140046E-06 -2.031779E-08  1.707916E-07  2.423094E-06 -1.636502E-09  1.636502E-09 _shell_0000000274   
       275   1 -3.700606E-06 -1.195739E-07  1.395464E-07  2.102728E-06  1.216540E-09 -1.216540E-09 _shell_0000000275   
       275   2 -3.980964E-06 -1.232235E-07  2.198892E-07  2.102728E-06 -1.216540E-09 -1.216540E-09 _shell_0000000275   
       275   3 -3.704256E-06 -5.049317E-07 -2.000696E-07  2.102728E-06  1.216540E-09  1.216540E-09 _shell_0000000275   
       275   4 -3.977315E-06 -5.012821E-07 -1.026951E-07  2.102728E-06 -1.216540E-09  1.216540E-09 _shell_0000000275   
       275   5 -3.700606E-06 -1.195739E-07  1.395464E-07  2.102728E-06 -1.216540E-09  1.216540E-09 _shell_0000000275   
       275   6 -3.980964E-06 -1.232235E-07  2.198892E-07  2.102728E-06  1.216540E-09  1.216540E-09 _shell_0000000275   
       275   7 -3.704256E-06 -5.049317E-07 -2.000696E-07  2.102728E-06 -1.216540E-09 -1.216540E-09 _shell_0000000275   
       275   8 -3.977315E-06 -5.012821E-07 -1.026951E-07  2.102728E-06  1.216540E-09 -1.216540E-09 _shell_0000000275   
       276   1 -5.670653E-06 -3.410686E-07  1.439928E-07  3.912156E-06  1.468080E-09 -1.468080E-09 _shell_0000000276   
       276   2 -5.733181E-06 -3.454728E-07  2.347104E-07  3.912156E-06 -1.468080E-09 -1.468080E-09 _shell_0000000276   
       276   3 -5.675058E-06 -8.144557E-07 -2.279753E-07  3.912156E-06  1.468080E-09  1.468080E-09 _shell_0000000276   
       276   4 -5.728777E-06 -8.100515E-07 -1.167045E-07  3.912156E-06 -1.468080E-09  1.468080E-09 _shell_0000000276   
       276   5 -5.670653E-06 -3.410686E-07  1.439928E-07  3.912156E-06 -1.468080E-09  1.468080E-09 _shell_0000000276   
       276   6 -5.733181E-06 -3.454728E-07  2.347104E-07  3.912156E-06  1.468080E-09  1.468080E-09 _shell_0000000276   
       276   7 -5.675058E-06 -8.144557E-07 -2.279753E-07  3.912156E-06 -1.468080E-09 -1.468080E-09 _shell_0000000276   
       276   8 -5.728777E-06 -8.100515E-07 -1.167045E-07  3.912156E-06  1.468080E-09 -1.468080E-09 _shell_0000000276   
       277   1 -4.288828E-06 -9.906625E-07 -2.234231E-07  3.435473E-06  1.178200E-09  1.178200E-09 _shell_0000000277   
       277   2 -4.285293E-06 -5.445154E-07  1.126271E-07  3.435473E-06  1.178200E-09 -1.178200E-09 _shell_0000000277   
       277   3 -4.316697E-06 -9.871279E-07 -8.233116E-08  3.435473E-06 -1.178200E-09  1.178200E-09 _shell_0000000277   
       277   4 -4.320231E-06 -5.480500E-07  2.372242E-07  3.435473E-06 -1.178200E-09 -1.178200E-09 _shell_0000000277   
       277   5 -4.288828E-06 -9.906625E-07 -2.234231E-07  3.435473E-06 -1.178200E-09 -1.178200E-09 _shell_0000000277   
       277   6 -4.285293E-06 -5.445154E-07  1.126271E-07  3.435473E-06 -1.178200E-09  1.178200E-09 _shell_0000000277   
       277   7 -4.316697E-06 -9.871279E-07 -8.233116E-08  3.435473E-06  1.178200E-09 -1.178200E-09 _shell_0000000277   
       277   8 -4.320231E-06 -5.480500E-07  2.372242E-07  3.435473E-06  1.178200E-09  1.178200E-09 _shell_0000000277   
       278   1  3.289846E+01 -2.584641E-01 -4.689733E-02 -6.588194E-01 -3.859723E-03  3.859723E-03 _shell_0000000278   
       278   2  3.550054E+01 -2.468849E-01  2.509983E-02 -6.588193E-01  3.859723E-03  3.859723E-03 _shell_0000000278   
       278   3  3.291004E+01 -9.706841E-01 -3.386668E-02 -6.588193E-01 -3.859723E-03 -3.859723E-03 _shell_0000000278   
       278   4  3.548896E+01 -9.822633E-01 -1.590568E-02 -6.588193E-01  3.859723E-03 -3.859723E-03 _shell_0000000278   
       278   5  3.289846E+01 -2.584641E-01 -4.689733E-02 -6.588194E-01  3.859723E-03 -3.859723E-03 _shell_0000000278   
       278   6  3.550054E+01 -2.468849E-01  2.509983E-02 -6.588193E-01 -3.859723E-03 -3.859723E-03 _shell_0000000278   
       278   7  3.291004E+01 -9.706841E-01 -3.386668E-02 -6.588193E-01  3.859723E-03  3.859723E-03 _shell_0000000278   
       278   8  3.548896E+01 -9.822633E-01 -1.590568E-02 -6.588193E-01 -3.859723E-03  3.859723E-03 _shell_0000000278   
       279   1  3.112616E+01 -7.540951E-01  2.062584E-02 -6.766712E-01  4.888680E-03 -4.888680E-03 _shell_0000000279   
       279   2  2.851680E+01 -7.394290E-01 -7.656910E-02 -6.766713E-01 -4.888679E-03 -4.888679E-03 _shell_0000000279   
       279   3  3.114082E+01  1.684234E-01  4.525587E-02 -6.766712E-01  4.888679E-03  4.888679E-03 _shell_0000000279   
       279   4  2.850213E+01  1.537574E-01 -1.203806E-01 -6.766713E-01 -4.888680E-03  4.888680E-03 _shell_0000000279   
       279   5  3.112616E+01 -7.540951E-01  2.062584E-02 -6.766712E-01 -4.888680E-03  4.888680E-03 _shell_0000000279   
       279   6  2.851680E+01 -7.394290E-01 -7.656910E-02 -6.766713E-01  4.888679E-03  4.888679E-03 _shell_0000000279   
       279   7  3.114082E+01  1.684234E-01  4.525587E-02 -6.766712E-01 -4.888679E-03 -4.888679E-03 _shell_0000000279   
       279   8  2.850213E+01  1.537574E-01 -1.203806E-01 -6.766713E-01  4.888680E-03 -4.888680E-03 _shell_0000000279   
       280   1  3.131677E+01  9.187787E-01  1.847358E-02 -7.535372E-02  1.619275E-03  1.619275E-03 _shell_0000000280   
       280   2  3.131191E+01  6.860614E-01  1.015015E-01 -7.535371E-02  1.619275E-03 -1.619275E-03 _shell_0000000280   
       280   3  2.884745E+01  9.139209E-01 -1.350222E-01 -7.535396E-02 -1.619275E-03  1.619275E-03 _shell_0000000280   
       280   4  2.885231E+01  6.909192E-01 -2.932450E-02 -7.535398E-02 -1.619275E-03 -1.619275E-03 _shell_0000000280   
       280   5  3.131677E+01  9.187787E-01  1.847358E-02 -7.535372E-02 -1.619275E-03 -1.619275E-03 _shell_0000000280   
       280   6  3.131191E+01  6.860614E-01  1.015015E-01 -7.535371E-02 -1.619275E-03  1.619275E-03 _shell_0000000280   
       280   7  2.884745E+01  9.139209E-01 -1.350222E-01 -7.535396E-02  1.619275E-03 -1.619275E-03 _shell_0000000280   
       280   8  2.885231E+01  6.909192E-01 -2.932450E-02 -7.535398E-02  1.619275E-03  1.619275E-03 _shell_0000000280   
       281   1  3.213724E+01  8.751747E-01  8.373404E-02  6.921718E-01 -2.400857E-03  2.400852E-03 _shell_0000000281   
       281   2  2.992161E+01  8.679719E-01  5.167267E-02  6.921649E-01  2.400843E-03  2.400849E-03 _shell_0000000281   
       281   3  3.213000E+01  4.317241E-01 -5.871021E-02  6.921706E-01 -2.400839E-03 -2.400846E-03 _shell_0000000281   
       281   4  2.992879E+01  4.389276E-01 -5.715785E-02  6.921641E-01  2.400856E-03 -2.400851E-03 _shell_0000000281   
       281   5  3.213724E+01  8.751747E-01  8.373404E-02  6.921718E-01  2.400857E-03 -2.400852E-03 _shell_0000000281   
       281   6  2.992161E+01  8.679719E-01  5.167267E-02  6.921649E-01 -2.400843E-03 -2.400849E-03 _shell_0000000281   
       281   7  3.213000E+01  4.317241E-01 -5.871021E-02  6.921706E-01  2.400839E-03  2.400846E-03 _shell_0000000281   
       281   8  2.992879E+01  4.389276E-01 -5.715785E-02  6.921641E-01 -2.400856E-03  2.400851E-03 _shell_0000000281   
       282   1  2.528661E+01  1.465063E+00 -1.032281E-01  4.326034E-01  5.971773E-03  5.971773E-03 _shell_0000000282   
       282   2  2.530453E+01  1.522621E+00 -1.730519E-01  4.326034E-01  5.971774E-03 -5.971774E-03 _shell_0000000282   
       282   3  2.746304E+01  1.482979E+00  1.583770E-01  4.326035E-01 -5.971774E-03  5.971774E-03 _shell_0000000282   
       282   4  2.744512E+01  1.504706E+00  4.948305E-03  4.326035E-01 -5.971773E-03 -5.971773E-03 _shell_0000000282   
       282   5  2.528661E+01  1.465063E+00 -1.032281E-01  4.326034E-01 -5.971773E-03 -5.971773E-03 _shell_0000000282   
       282   6  2.530453E+01  1.522621E+00 -1.730519E-01  4.326034E-01 -5.971774E-03  5.971774E-03 _shell_0000000282   
       282   7  2.746304E+01  1.482979E+00  1.583770E-01  4.326035E-01  5.971774E-03 -5.971774E-03 _shell_0000000282   
       282   8  2.744512E+01  1.504706E+00  4.948305E-03  4.326035E-01  5.971773E-03  5.971773E-03 _shell_0000000282   
       283   1  2.798726E+01  1.637438E+00  1.431289E-01  1.010832E+00 -2.032545E-03  2.032544E-03 _shell_0000000283   
       283   2  2.613329E+01  1.631340E+00  7.438030E-02  1.010831E+00  2.032543E-03  2.032544E-03 _shell_0000000283   
       283   3  2.798116E+01  1.118945E+00 -3.529647E-02  1.010831E+00 -2.032543E-03 -2.032544E-03 _shell_0000000283   
       283   4  2.613938E+01  1.125043E+00 -7.558942E-02  1.010831E+00  2.032545E-03 -2.032544E-03 _shell_0000000283   
       283   5  2.798726E+01  1.637438E+00  1.431289E-01  1.010832E+00  2.032545E-03 -2.032544E-03 _shell_0000000283   
       283   6  2.613329E+01  1.631340E+00  7.438030E-02  1.010831E+00 -2.032543E-03 -2.032544E-03 _shell_0000000283   
       283   7  2.798116E+01  1.118945E+00 -3.529647E-02  1.010831E+00  2.032543E-03  2.032544E-03 _shell_0000000283   
       283   8  2.613938E+01  1.125043E+00 -7.558942E-02  1.010831E+00 -2.032545E-03  2.032544E-03 _shell_0000000283   
       284   1  2.520429E+01  1.034997E+00 -8.500805E-02  7.759762E-01 -1.395779E-02  1.395779E-02 _shell_0000000284   
       284   2  2.453565E+01  9.931234E-01  2.730142E-02  7.759761E-01  1.395778E-02  1.395779E-02 _shell_0000000284   
       284   3  2.516241E+01  1.501104E+00  1.032212E-01  7.759761E-01 -1.395778E-02 -1.395778E-02 _shell_0000000284   
       284   4  2.457752E+01  1.542977E+00  4.109398E-01  7.759760E-01  1.395779E-02 -1.395779E-02 _shell_0000000284   
       284   5  2.520429E+01  1.034997E+00 -8.500805E-02  7.759762E-01  1.395779E-02 -1.395779E-02 _shell_0000000284   
       284   6  2.453565E+01  9.931234E-01  2.730142E-02  7.759761E-01 -1.395778E-02 -1.395779E-02 _shell_0000000284   
       284   7  2.516241E+01  1.501104E+00  1.032212E-01  7.759761E-01  1.395778E-02  1.395778E-02 _shell_0000000284   
       284   8  2.457752E+01  1.542977E+00  4.109398E-01  7.759760E-01 -1.395779E-02  1.395779E-02 _shell_0000000284   
       285   1  2.362088E+01  1.485747E+00  2.602171E-01  5.803567E-01 -2.385026E-02  2.385026E-02 _shell_0000000285   
       285   2  2.098668E+01  1.414196E+00 -5.674932E-01  5.803567E-01  2.385026E-02  2.385026E-02 _shell_0000000285   
       285   3  2.354933E+01  1.836767E+00 -7.179332E-02  5.803567E-01 -2.385026E-02 -2.385026E-02 _shell_0000000285   
       285   4  2.105823E+01  1.908318E+00 -5.656000E-01  5.803567E-01  2.385026E-02 -2.385026E-02 _shell_0000000285   
       285   5  2.362088E+01  1.485747E+00  2.602171E-01  5.803567E-01  2.385026E-02 -2.385026E-02 _shell_0000000285   
       285   6  2.098668E+01  1.414196E+00 -5.674932E-01  5.803567E-01 -2.385026E-02 -2.385026E-02 _shell_0000000285   
       285   7  2.354933E+01  1.836767E+00 -7.179332E-02  5.803567E-01  2.385026E-02  2.385026E-02 _shell_0000000285   
       285   8  2.105823E+01  1.908318E+00 -5.656000E-01  5.803567E-01 -2.385026E-02  2.385026E-02 _shell_0000000285   
       286   1  2.479426E+01  1.326917E+00 -1.133211E-01  1.660994E+00  2.804430E-03  2.804430E-03 _shell_0000000286   
       286   2  2.478585E+01  2.645765E+00  3.602182E-01  1.660994E+00  2.804431E-03 -2.804431E-03 _shell_0000000286   
       286   3  2.498662E+01  1.318504E+00  2.248675E-01  1.660994E+00 -2.804431E-03  2.804431E-03 _shell_0000000286   
       286   4  2.499503E+01  2.654179E+00  7.376687E-01  1.660994E+00 -2.804430E-03 -2.804430E-03 _shell_0000000286   
       286   5  2.479426E+01  1.326917E+00 -1.133211E-01  1.660994E+00 -2.804430E-03 -2.804430E-03 _shell_0000000286   
       286   6  2.478585E+01  2.645765E+00  3.602182E-01  1.660994E+00 -2.804431E-03  2.804431E-03 _shell_0000000286   
       286   7  2.498662E+01  1.318504E+00  2.248675E-01  1.660994E+00  2.804431E-03 -2.804431E-03 _shell_0000000286   
       286   8  2.499503E+01  2.654179E+00  7.376687E-01  1.660994E+00  2.804430E-03  2.804430E-03 _shell_0000000286   
       287   1  2.361328E+01  2.418722E-01 -9.977815E-02  2.023633E-01  4.670530E-02  4.670529E-02 _shell_0000000287   
       287   2  2.347317E+01  4.154924E-01 -1.711889E-01  2.023633E-01  4.670531E-02 -4.670530E-02 _shell_0000000287   
       287   3  2.243129E+01  1.017563E-01 -5.056399E-01  2.023632E-01 -4.670531E-02  4.670530E-02 _shell_0000000287   
       287   4  2.257140E+01  5.556083E-01  7.682353E-02  2.023632E-01 -4.670530E-02 -4.670530E-02 _shell_0000000287   
       287   5  2.361328E+01  2.418722E-01 -9.977815E-02  2.023633E-01 -4.670530E-02 -4.670529E-02 _shell_0000000287   
       287   6  2.347317E+01  4.154924E-01 -1.711889E-01  2.023633E-01 -4.670531E-02  4.670530E-02 _shell_0000000287   
       287   7  2.243129E+01  1.017563E-01 -5.056399E-01  2.023632E-01  4.670531E-02 -4.670530E-02 _shell_0000000287   
       287   8  2.257140E+01  5.556083E-01  7.682353E-02  2.023632E-01  4.670530E-02  4.670530E-02 _shell_0000000287   
       288   1 -1.599692E+01 -6.801486E+00  8.690982E-02  8.919724E+00 -3.625591E-02  3.625591E-02 _shell_0000000288   
       288   2 -1.576667E+01 -6.692719E+00 -1.022996E-01  8.919724E+00  3.625591E-02  3.625591E-02 _shell_0000000288   
       288   3 -1.588816E+01 -7.047963E+00  4.058146E-01  8.919724E+00 -3.625591E-02 -3.625591E-02 _shell_0000000288   
       288   4 -1.587544E+01 -7.156731E+00 -2.909776E-01  8.919724E+00  3.625591E-02 -3.625591E-02 _shell_0000000288   
       288   5 -1.599692E+01 -6.801486E+00  8.690982E-02  8.919724E+00  3.625591E-02 -3.625591E-02 _shell_0000000288   
       288   6 -1.576667E+01 -6.692719E+00 -1.022996E-01  8.919724E+00 -3.625591E-02 -3.625591E-02 _shell_0000000288   
       288   7 -1.588816E+01 -7.047963E+00  4.058146E-01  8.919724E+00  3.625591E-02  3.625591E-02 _shell_0000000288   
       288   8 -1.587544E+01 -7.156731E+00 -2.909776E-01  8.919724E+00 -3.625591E-02  3.625591E-02 _shell_0000000288   
       289   1  2.025278E+01  4.476180E+00  3.133496E-01  6.429665E+00  2.463405E-02  2.463405E-02 _shell_0000000289   
       289   2  2.017888E+01  3.866091E+00 -3.895837E-02  6.429665E+00  2.463405E-02 -2.463405E-02 _shell_0000000289   
       289   3  1.943511E+01  4.402277E+00  9.599373E-03  6.429665E+00 -2.463405E-02  2.463405E-02 _shell_0000000289   
       289   4  1.950901E+01  3.939993E+00  2.168166E-03  6.429665E+00 -2.463405E-02 -2.463405E-02 _shell_0000000289   
       289   5  2.025278E+01  4.476180E+00  3.133496E-01  6.429665E+00 -2.463405E-02 -2.463405E-02 _shell_0000000289   
       289   6  2.017888E+01  3.866091E+00 -3.895837E-02  6.429665E+00 -2.463405E-02  2.463405E-02 _shell_0000000289   
       289   7  1.943511E+01  4.402277E+00  9.599373E-03  6.429665E+00  2.463405E-02 -2.463405E-02 _shell_0000000289   
       289   8  1.950901E+01  3.939993E+00  2.168166E-03  6.429665E+00  2.463405E-02  2.463405E-02 _shell_0000000289   
       290   1 -1.513638E+01 -5.433122E+00  2.713496E-01  9.635542E+00 -1.163115E-02  1.163115E-02 _shell_0000000290   
       290   2 -1.530324E+01 -5.398229E+00 -5.472793E-03  9.635542E+00  1.163115E-02  1.163115E-02 _shell_0000000290   
       290   3 -1.510149E+01 -5.002673E+00  2.118187E-01  9.635542E+00 -1.163115E-02 -1.163115E-02 _shell_0000000290   
       290   4 -1.533814E+01 -5.037566E+00 -2.278398E-01  9.635542E+00  1.163115E-02 -1.163115E-02 _shell_0000000290   
       290   5 -1.513638E+01 -5.433122E+00  2.713496E-01  9.635542E+00  1.163115E-02 -1.163115E-02 _shell_0000000290   
       290   6 -1.530324E+01 -5.398229E+00 -5.472793E-03  9.635542E+00 -1.163115E-02 -1.163115E-02 _shell_0000000290   
       290   7 -1.510149E+01 -5.002673E+00  2.118187E-01  9.635542E+00  1.163115E-02  1.163115E-02 _shell_0000000290   
       290   8 -1.533814E+01 -5.037566E+00 -2.278398E-01  9.635542E+00 -1.163115E-02  1.163115E-02 _shell_0000000290   
       291   1  2.065402E+01  4.034218E+00  3.951084E-02  6.456953E+00  3.379944E-03 -3.379944E-03 _shell_0000000291   
       291   2  1.995159E+01  4.044358E+00  1.935330E-01  6.456953E+00 -3.379944E-03 -3.379944E-03 _shell_0000000291   
       291   3  2.066416E+01  3.944910E+00  6.017052E-02  6.456953E+00  3.379944E-03  3.379944E-03 _shell_0000000291   
       291   4  1.994145E+01  3.934771E+00  1.668735E-01  6.456953E+00 -3.379944E-03  3.379944E-03 _shell_0000000291   
       291   5  2.065402E+01  4.034218E+00  3.951084E-02  6.456953E+00 -3.379944E-03  3.379944E-03 _shell_0000000291   
       291   6  1.995159E+01  4.044358E+00  1.935330E-01  6.456953E+00  3.379944E-03  3.379944E-03 _shell_0000000291   
       291   7  2.066416E+01  3.944910E+00  6.017052E-02  6.456953E+00 -3.379944E-03 -3.379944E-03 _shell_0000000291   
       291   8  1.994145E+01  3.934771E+00  1.668735E-01  6.456953E+00  3.379944E-03 -3.379944E-03 _shell_0000000291   