
                        S T E P       1


                                INCREMENT     1


 stresses (elem, integ.pnt.,sxx,syy,szz,sxy,sxz,syz) for set SOLIDMATERIALELEMENTGEOMETRY2D and time  0.1000000E+01

       261   1  6.418766E+01 -3.552826E-04 -1.395463E-02  7.386842E-03 -2.482214E-03 -2.500648E-03 _shell_0000000261   
       261   2  6.413855E+01 -9.169014E-03 -1.205798E-02  6.267675E-03 -2.487402E-03  2.500402E-03 _shell_0000000261   
       261   3  6.101964E+01  6.083271E-03  1.175972E-02  1.769509E-03  2.485079E-03 -2.498066E-03 _shell_0000000261   
       261   4  6.095979E+01 -1.559802E-02 -1.845826E-02  2.866845E-03  2.475581E-03  2.493966E-03 _shell_0000000261   
       261   5  6.418766E+01 -3.552826E-04 -1.395463E-02  7.386842E-03  2.482214E-03  2.500648E-03 _shell_0000000261   
       261   6  6.413855E+01 -9.169014E-03 -1.205798E-02  6.267675E-03  2.487402E-03 -2.500402E-03 _shell_0000000261   
       261   7  6.101964E+01  6.083270E-03  1.175972E-02  1.769509E-03 -2.485079E-03  2.498066E-03 _shell_0000000261   
       261   8  6.095979E+01 -1.559802E-02 -1.845826E-02  2.866845E-03 -2.475581E-03 -2.493966E-03 _shell_0000000261   
       262   1  5.862044E+01 -7.231270E-03 -2.335245E-02 -2.917158E-03 -1.129216E-04 -1.130450E-04 _shell_0000000262   
       262   2  5.869363E+01  4.196846E-02  2.231714E-02 -1.840089E-03 -1.142253E-04  1.143349E-04 _shell_0000000262   
       262   3  5.543327E+01 -5.519598E-03 -2.590839E-02 -1.883351E-02  1.142456E-04 -1.143552E-04 _shell_0000000262   
       262   4  5.549989E+01  4.013167E-02  1.436287E-02 -1.945787E-02  1.132188E-04  1.133425E-04 _shell_0000000262   
       262   5  5.862044E+01 -7.231270E-03 -2.335245E-02 -2.917158E-03  1.129216E-04  1.130450E-04 _shell_0000000262   
       262   6  5.869363E+01  4.196846E-02  2.231714E-02 -1.840089E-03  1.142253E-04 -1.143349E-04 _shell_0000000262   
       262   7  5.543327E+01 -5.519598E-03 -2.590839E-02 -1.883351E-02 -1.142456E-04  1.143552E-04 _shell_0000000262   
       262   8  5.549989E+01  4.013167E-02  1.436287E-02 -1.945787E-02 -1.132188E-04 -1.133425E-04 _shell_0000000262   
       263   1  5.310926E+01  1.047335E-02 -1.773765E-02 -2.428678E-03 -3.239922E-04 -3.231431E-04 _shell_0000000263   
       263   2  5.316082E+01  5.254047E-02  1.450377E-02 -1.631922E-03 -3.264051E-04  3.259496E-04 _shell_0000000263   
       263   3  4.991895E+01  1.254894E-02 -1.328320E-02 -1.233866E-02  3.264493E-04 -3.259937E-04 _shell_0000000263   
       263   4  4.996403E+01  5.046199E-02  1.148032E-02 -1.284231E-02  3.246442E-04  3.237934E-04 _shell_0000000263   
       263   5  5.310926E+01  1.047335E-02 -1.773765E-02 -2.428678E-03  3.239922E-04  3.231431E-04 _shell_0000000263   
       263   6  5.316082E+01  5.254047E-02  1.450377E-02 -1.631922E-03  3.264051E-04 -3.259496E-04 _shell_0000000263   
       263   7  4.991895E+01  1.254894E-02 -1.328320E-02 -1.233866E-02 -3.264493E-04  3.259937E-04 _shell_0000000263   
       263   8  4.996403E+01  5.046199E-02  1.148032E-02 -1.284231E-02 -3.246442E-04 -3.237934E-04 _shell_0000000263   
       264   1  5.864870E+01  6.163804E-02  1.045658E-02 -2.392425E-02  3.303564E-04 -3.307209E-04 _shell_0000000264   
       264   2  5.545542E+01  6.188217E-02  6.245934E-03 -3.827358E-02 -3.280908E-04 -3.294252E-04 _shell_0000000264   
       264   3  5.861068E+01  2.155208E-02 -7.440553E-03 -2.485014E-02  3.274256E-04  3.287572E-04 _shell_0000000264   
       264   4  5.541855E+01  2.131146E-02 -1.426792E-02 -3.751976E-02 -3.305932E-04  3.309580E-04 _shell_0000000264   
       264   5  5.864870E+01  6.163804E-02  1.045658E-02 -2.392425E-02 -3.303564E-04  3.307209E-04 _shell_0000000264   
       264   6  5.545542E+01  6.188217E-02  6.245934E-03 -3.827358E-02  3.280908E-04  3.294252E-04 _shell_0000000264   
       264   7  5.861068E+01  2.155208E-02 -7.440553E-03 -2.485014E-02 -3.274256E-04 -3.287573E-04 _shell_0000000264   
       264   8  5.541855E+01  2.131146E-02 -1.426792E-02 -3.751976E-02  3.305932E-04 -3.309580E-04 _shell_0000000264   
       265   1  5.305613E+01  8.808696E-02 -8.968233E-03 -3.987138E-02  3.635583E-05  3.640652E-05 _shell_0000000265   
       265   2  5.308737E+01  1.507299E-01  1.588767E-02 -3.941514E-02  3.650798E-05 -3.649984E-05 _shell_0000000265   
       265   3  4.985352E+01  8.872249E-02 -1.488675E-02 -4.530007E-02 -3.651196E-05  3.650381E-05 _shell_0000000265   
       265   4  4.988217E+01  1.502382E-01  8.682334E-03 -4.568340E-02 -3.640213E-05 -3.645289E-05 _shell_0000000265   
       265   5  5.305613E+01  8.808696E-02 -8.968233E-03 -3.987138E-02 -3.635584E-05 -3.640653E-05 _shell_0000000265   
       265   6  5.308737E+01  1.507299E-01  1.588767E-02 -3.941514E-02 -3.650799E-05  3.649984E-05 _shell_0000000265   
       265   7  4.985352E+01  8.872249E-02 -1.488675E-02 -4.530007E-02  3.651196E-05 -3.650382E-05 _shell_0000000265   
       265   8  4.988217E+01  1.502382E-01  8.682334E-03 -4.568340E-02  3.640213E-05  3.645288E-05 _shell_0000000265   
       266   1  3.484283E+01  1.113664E+00 -5.370881E-02  4.104166E-01 -5.610939E-03 -5.610941E-03 _shell_0000000266   
       266   2  3.485966E+01  1.244314E+00  1.627435E-01  4.104167E-01 -5.610942E-03  5.610942E-03 _shell_0000000266   
       266   3  3.158033E+01  1.130497E+00 -2.361556E-01  4.104161E-01  5.610942E-03 -5.610942E-03 _shell_0000000266   
       266   4  3.156350E+01  1.227481E+00 -9.825685E-02  4.104161E-01  5.610940E-03  5.610942E-03 _shell_0000000266   
       266   5  3.484283E+01  1.113664E+00 -5.370881E-02  4.104166E-01  5.610939E-03  5.610941E-03 _shell_0000000266   
       266   6  3.485966E+01  1.244314E+00  1.627435E-01  4.104167E-01  5.610942E-03 -5.610942E-03 _shell_0000000266   
       266   7  3.158033E+01  1.130497E+00 -2.361556E-01  4.104161E-01 -5.610942E-03  5.610942E-03 _shell_0000000266   
       266   8  3.156350E+01  1.227481E+00 -9.825685E-02  4.104161E-01 -5.610940E-03 -5.610942E-03 _shell_0000000266   
       267   1  3.100331E+01  6.777802E-01 -4.502755E-02  1.117261E+00 -1.094721E-02  1.094720E-02 _shell_0000000267   
       267   2  2.879342E+01  6.449385E-01 -2.663475E-02  1.117260E+00  1.094719E-02  1.094720E-02 _shell_0000000267   
       267   3  3.097047E+01  5.377870E-01 -7.902920E-02  1.117261E+00 -1.094719E-02 -1.094720E-02 _shell_0000000267   
       267   4  2.882625E+01  5.706289E-01  9.262488E-02  1.117259E+00  1.094721E-02 -1.094720E-02 _shell_0000000267   
       267   5  3.100331E+01  6.777802E-01 -4.502755E-02  1.117261E+00  1.094721E-02 -1.094720E-02 _shell_0000000267   
       267   6  2.879342E+01  6.449385E-01 -2.663475E-02  1.117260E+00 -1.094719E-02 -1.094720E-02 _shell_0000000267   
       267   7  3.097047E+01  5.377870E-01 -7.902920E-02  1.117261E+00  1.094719E-02  1.094720E-02 _shell_0000000267   
       267   8  2.882625E+01  5.706289E-01  9.262488E-02  1.117259E+00 -1.094721E-02  1.094720E-02 _shell_0000000267   
       268   1 -1.814892E+01  8.918217E+00  7.040265E-01  1.654298E+01  3.132810E-02 -3.132810E-02 _shell_0000000268   
       268   2 -1.882119E+01  8.824232E+00 -1.686825E-01  1.654298E+01 -3.132810E-02 -3.132810E-02 _shell_0000000268   
       268   3 -1.824290E+01  1.104815E+01  1.847236E-01  1.654298E+01  3.132810E-02  3.132810E-02 _shell_0000000268   
       268   4 -1.872720E+01  1.114213E+01 -2.493920E-01  1.654298E+01 -3.132810E-02  3.132810E-02 _shell_0000000268   
       268   5 -1.814892E+01  8.918217E+00  7.040265E-01  1.654298E+01 -3.132810E-02  3.132810E-02 _shell_0000000268   
       268   6 -1.882119E+01  8.824232E+00 -1.686825E-01  1.654298E+01  3.132810E-02  3.132810E-02 _shell_0000000268   
       268   7 -1.824290E+01  1.104815E+01  1.847236E-01  1.654298E+01 -3.132810E-02 -3.132810E-02 _shell_0000000268   
       268   8 -1.872720E+01  1.114213E+01 -2.493920E-01  1.654298E+01  3.132810E-02 -3.132810E-02 _shell_0000000268   
       269   1 -1.756217E+01  1.191160E+01  1.609611E-01  1.806418E+01  4.275228E-02 -4.275228E-02 _shell_0000000269   
       269   2 -1.838353E+01  1.178334E+01 -1.589475E-01  1.806418E+01 -4.275228E-02 -4.275228E-02 _shell_0000000269   
       269   3 -1.769042E+01  1.101512E+01 -3.469379E-01  1.806418E+01  4.275228E-02  4.275228E-02 _shell_0000000269   
       269   4 -1.825527E+01  1.114337E+01 -6.831469E-02  1.806418E+01 -4.275228E-02  4.275228E-02 _shell_0000000269   
       269   5 -1.756217E+01  1.191160E+01  1.609611E-01  1.806418E+01 -4.275228E-02  4.275228E-02 _shell_0000000269   
       269   6 -1.838353E+01  1.178334E+01 -1.589475E-01  1.806418E+01  4.275228E-02  4.275228E-02 _shell_0000000269   
       269   7 -1.769042E+01  1.101512E+01 -3.469379E-01  1.806418E+01 -4.275228E-02 -4.275228E-02 _shell_0000000269   
       269   8 -1.825527E+01  1.114337E+01 -6.831469E-02  1.806418E+01  4.275228E-02 -4.275228E-02 _shell_0000000269   
       270   1 -1.707654E+01  1.095497E+01  1.916110E-01  1.667340E+01  1.984529E-02 -1.984529E-02 _shell_0000000270   
       270   2 -1.444616E+01  1.089543E+01 -5.862779E-01  1.667340E+01 -1.984529E-02 -1.984529E-02 _shell_0000000270   
       270   3 -1.713608E+01  1.318791E+01  2.341589E-01  1.667340E+01  1.984529E-02  1.984529E-02 _shell_0000000270   
       270   4 -1.438662E+01  1.324745E+01 -2.658959E-01  1.667340E+01 -1.984529E-02  1.984529E-02 _shell_0000000270   
       270   5 -1.707654E+01  1.095497E+01  1.916110E-01  1.667340E+01 -1.984529E-02  1.984529E-02 _shell_0000000270   
       270   6 -1.444616E+01  1.089543E+01 -5.862779E-01  1.667340E+01  1.984529E-02  1.984529E-02 _shell_0000000270   
       270   7 -1.713608E+01  1.318791E+01  2.341589E-01  1.667340E+01 -1.984529E-02 -1.984529E-02 _shell_0000000270   
       270   8 -1.438662E+01  1.324745E+01 -2.658959E-01  1.667340E+01  1.984529E-02 -1.984529E-02 _shell_0000000270   
       271   1 -1.723931E+01  1.101461E+01  1.067110E-02  1.836789E+01  2.437150E-02  2.437150E-02 _shell_0000000271   
       271   2 -1.716619E+01  1.329597E+01  2.173501E-01  1.836789E+01  2.437150E-02 -2.437150E-02 _shell_0000000271   
       271   3 -1.423250E+01  1.108772E+01  1.367617E-02  1.836789E+01 -2.437150E-02  2.437150E-02 _shell_0000000271   
       271   4 -1.430562E+01  1.322286E+01 -1.208458E-01  1.836789E+01 -2.437150E-02 -2.437150E-02 _shell_0000000271   
       271   5 -1.723931E+01  1.101461E+01  1.067110E-02  1.836789E+01 -2.437150E-02 -2.437150E-02 _shell_0000000271   
       271   6 -1.716619E+01  1.329597E+01  2.173501E-01  1.836789E+01 -2.437150E-02  2.437150E-02 _shell_0000000271   
       271   7 -1.423250E+01  1.108772E+01  1.367617E-02  1.836789E+01  2.437150E-02 -2.437150E-02 _shell_0000000271   
       271   8 -1.430562E+01  1.322286E+01 -1.208458E-01  1.836789E+01  2.437150E-02  2.437150E-02 _shell_0000000271   
       272   1 -1.798560E+01  7.561158E+00 -2.691002E-01  1.711945E+01  3.099176E-03 -3.099176E-03 _shell_0000000272   
       272   2 -1.419014E+01  7.551861E+00  5.035252E-02  1.711945E+01 -3.099176E-03 -3.099176E-03 _shell_0000000272   
       272   3 -1.799490E+01  6.246497E-01 -1.746812E-01  1.711945E+01  3.099176E-03  3.099176E-03 _shell_0000000272   
       272   4 -1.418084E+01  6.339472E-01  1.881599E-01  1.711945E+01 -3.099176E-03  3.099176E-03 _shell_0000000272   
       272   5 -1.798560E+01  7.561158E+00 -2.691002E-01  1.711945E+01 -3.099176E-03  3.099176E-03 _shell_0000000272   
       272   6 -1.419014E+01  7.551861E+00  5.035252E-02  1.711945E+01  3.099176E-03  3.099176E-03 _shell_0000000272   
       272   7 -1.799490E+01  6.246497E-01 -1.746812E-01  1.711945E+01 -3.099176E-03 -3.099176E-03 _shell_0000000272   
       272   8 -1.418084E+01  6.339472E-01  1.881599E-01  1.711945E+01  3.099176E-03 -3.099176E-03 _shell_0000000272   
       273   1  6.825705E+00  1.907058E+01  4.979412E-01  1.614998E+01  8.861375E-02 -8.861375E-02 _shell_0000000273   
       273   2  3.257912E+01  1.880474E+01  2.378226E+00  1.614998E+01 -8.861375E-02 -8.861375E-02 _shell_0000000273   
       273   3  6.559864E+00  7.386174E+00  2.791007E-01  1.614998E+01  8.861375E-02  8.861375E-02 _shell_0000000273   
       273   4  3.284496E+01  7.652015E+00  3.399978E+00  1.614998E+01 -8.861375E-02  8.861375E-02 _shell_0000000273   
       273   5  6.825705E+00  1.907058E+01  4.979412E-01  1.614998E+01 -8.861375E-02  8.861375E-02 _shell_0000000273   
       273   6  3.257912E+01  1.880474E+01  2.378226E+00  1.614998E+01  8.861375E-02  8.861375E-02 _shell_0000000273   
       273   7  6.559864E+00  7.386174E+00  2.791007E-01  1.614998E+01 -8.861375E-02 -8.861375E-02 _shell_0000000273   
       273   8  3.284496E+01  7.652015E+00  3.399978E+00  1.614998E+01  8.861375E-02 -8.861375E-02 _shell_0000000273   
       274   1 -3.071574E-06 -6.220756E-07 -6.161649E-08  1.712463E-06  7.871880E-10 -7.871880E-10 _shell_0000000274   
       274   2 -2.407025E-06 -6.197140E-07 -1.919550E-07  1.712463E-06 -7.871880E-10 -7.871880E-10 _shell_0000000274   
       274   3 -3.069212E-06 -3.371715E-07  2.402476E-07  1.712463E-06  7.871880E-10  7.871880E-10 _shell_0000000274   
       274   4 -2.409386E-06 -3.395331E-07  9.888852E-08  1.712463E-06 -7.871880E-10  7.871880E-10 _shell_0000000274   
       274   5 -3.071574E-06 -6.220756E-07 -6.161649E-08  1.712463E-06 -7.871880E-10  7.871880E-10 _shell_0000000274   
       274   6 -2.407025E-06 -6.197140E-07 -1.919550E-07  1.712463E-06  7.871880E-10  7.871880E-10 _shell_0000000274   
       274   7 -3.069212E-06 -3.371715E-07  2.402476E-07  1.712463E-06 -7.871880E-10 -7.871880E-10 _shell_0000000274   
       274   8 -2.409386E-06 -3.395331E-07  9.888852E-08  1.712463E-06  7.871880E-10 -7.871880E-10 _shell_0000000274   
       275   1 -1.387922E-06 -3.534081E-07  6.178080E-08  1.166296E-06 -1.733812E-09  1.733812E-09 _shell_0000000275   
       275   2 -1.993357E-06 -3.482067E-07  2.025256E-07  1.166296E-06  1.733812E-09  1.733812E-09 _shell_0000000275   
       275   3 -1.382720E-06 -5.556255E-07 -1.501481E-07  1.166296E-06 -1.733812E-09 -1.733812E-09 _shell_0000000275   
       275   4 -1.998558E-06 -5.608269E-07 -3.367659E-08  1.166296E-06  1.733812E-09 -1.733812E-09 _shell_0000000275   
       275   5 -1.387922E-06 -3.534081E-07  6.178080E-08  1.166296E-06  1.733812E-09 -1.733812E-09 _shell_0000000275   
       275   6 -1.993357E-06 -3.482067E-07  2.025256E-07  1.166296E-06 -1.733812E-09 -1.733812E-09 _shell_0000000275   
       275   7 -1.382720E-06 -5.556255E-07 -1.501481E-07  1.166296E-06  1.733812E-09  1.733812E-09 _shell_0000000275   
       275   8 -1.998558E-06 -5.608269E-07 -3.367659E-08  1.166296E-06 -1.733812E-09  1.733812E-09 _shell_0000000275   
       276   1 -3.721389E-06 -1.034961E-06  6.656562E-08  2.931386E-06 -5.560768E-10  5.560768E-10 _shell_0000000276   
       276   2 -4.023825E-06 -1.033293E-06  2.696824E-07  2.931386E-06  5.560768E-10  5.560768E-10 _shell_0000000276   
       276   3 -3.719721E-06 -1.307838E-06 -2.355949E-07  2.931386E-06 -5.560768E-10 -5.560768E-10 _shell_0000000276   
       276   4 -4.025493E-06 -1.309506E-06 -4.026321E-08  2.931386E-06  5.560768E-10 -5.560768E-10 _shell_0000000276   
       276   5 -3.721389E-06 -1.034961E-06  6.656562E-08  2.931386E-06  5.560768E-10 -5.560768E-10 _shell_0000000276   
       276   6 -4.023825E-06 -1.033293E-06  2.696824E-07  2.931386E-06 -5.560768E-10 -5.560768E-10 _shell_0000000276   
       276   7 -3.719721E-06 -1.307838E-06 -2.355949E-07  2.931386E-06  5.560768E-10  5.560768E-10 _shell_0000000276   
       276   8 -4.025493E-06 -1.309506E-06 -4.026321E-08  2.931386E-06 -5.560768E-10  5.560768E-10 _shell_0000000276   
       277   1 -2.599992E-06 -1.214591E-06 -2.020794E-07  2.134890E-06 -1.375171E-09 -1.375171E-09 _shell_0000000277   
       277   2 -2.604117E-06 -1.004665E-06  4.235143E-08  2.134890E-06 -1.375171E-09  1.375171E-09 _shell_0000000277   
       277   3 -2.882312E-06 -1.218716E-06 -2.210275E-08  2.134890E-06  1.375171E-09 -1.375171E-09 _shell_0000000277   
       277   4 -2.878186E-06 -1.000539E-06  2.415805E-07  2.134890E-06  1.375171E-09  1.375171E-09 _shell_0000000277   
       277   5 -2.599992E-06 -1.214591E-06 -2.020794E-07  2.134890E-06  1.375171E-09  1.375171E-09 _shell_0000000277   
       277   6 -2.604117E-06 -1.004665E-06  4.235143E-08  2.134890E-06  1.375171E-09 -1.375171E-09 _shell_0000000277   
       277   7 -2.882312E-06 -1.218716E-06 -2.210275E-08  2.134890E-06 -1.375171E-09  1.375171E-09 _shell_0000000277   
       277   8 -2.878186E-06 -1.000539E-06  2.415805E-07  2.134890E-06 -1.375171E-09 -1.375171E-09 _shell_0000000277   
       278   1  3.100949E+01  6.706632E-01 -2.128689E-01 -4.163530E-01 -1.040719E-02  1.040719E-02 _shell_0000000278   
       278   2  3.432298E+01  7.018848E-01  3.938804E-02 -4.163529E-01  1.040719E-02  1.040719E-02 _shell_0000000278   
       278   3  3.104071E+01 -2.750018E-01 -3.733399E-03 -4.163530E-01 -1.040719E-02 -1.040719E-02 _shell_0000000278   
       278   4  3.429176E+01 -3.062234E-01  1.028228E-01 -4.163529E-01  1.040719E-02 -1.040719E-02 _shell_0000000278   
       278   5  3.100949E+01  6.706632E-01 -2.128689E-01 -4.163530E-01  1.040719E-02 -1.040719E-02 _shell_0000000278   
       278   6  3.432298E+01  7.018848E-01  3.938804E-02 -4.163529E-01 -1.040719E-02 -1.040719E-02 _shell_0000000278   
       278   7  3.104071E+01 -2.750018E-01 -3.733399E-03 -4.163530E-01  1.040719E-02  1.040719E-02 _shell_0000000278   
       278   8  3.429176E+01 -3.062234E-01  1.028228E-01 -4.163529E-01 -1.040719E-02  1.040719E-02 _shell_0000000278   
       279   1  2.898843E+01  1.139665E+00  2.377126E-01  5.875904E-01 -2.342711E-02  2.342711E-02 _shell_0000000279   
       279   2  2.515366E+01  1.069383E+00 -6.109499E-01  5.875903E-01  2.342711E-02  2.342711E-02 _shell_0000000279   
       279   3  2.891815E+01  1.624224E+00 -7.191015E-02  5.875904E-01 -2.342711E-02 -2.342711E-02 _shell_0000000279   
       279   4  2.522394E+01  1.694506E+00 -5.925931E-01  5.875903E-01  2.342711E-02 -2.342711E-02 _shell_0000000279   
       279   5  2.898843E+01  1.139665E+00  2.377126E-01  5.875904E-01  2.342711E-02 -2.342711E-02 _shell_0000000279   
       279   6  2.515366E+01  1.069383E+00 -6.109499E-01  5.875903E-01 -2.342711E-02 -2.342711E-02 _shell_0000000279   
       279   7  2.891815E+01  1.624224E+00 -7.191015E-02  5.875904E-01  2.342711E-02  2.342711E-02 _shell_0000000279   
       279   8  2.522394E+01  1.694506E+00 -5.925931E-01  5.875903E-01 -2.342711E-02  2.342711E-02 _shell_0000000279   
       280   1  3.024495E+01  1.119661E+00 -1.121772E-01  1.811197E+00  3.404085E-04  3.404085E-04 _shell_0000000280   
       280   2  3.024393E+01  2.489028E+00  3.921161E-01  1.811197E+00  3.404086E-04 -3.404085E-04 _shell_0000000280   
       280   3  2.916433E+01  1.118640E+00  2.141681E-01  1.811197E+00 -3.404086E-04  3.404086E-04 _shell_0000000280   
       280   4  2.916535E+01  2.490049E+00  7.232272E-01  1.811197E+00 -3.404085E-04 -3.404085E-04 _shell_0000000280   
       280   5  3.024495E+01  1.119661E+00 -1.121772E-01  1.811197E+00 -3.404085E-04 -3.404085E-04 _shell_0000000280   
       280   6  3.024393E+01  2.489028E+00  3.921161E-01  1.811197E+00 -3.404086E-04  3.404086E-04 _shell_0000000280   
       280   7  2.916433E+01  1.118640E+00  2.141681E-01  1.811197E+00  3.404086E-04 -3.404085E-04 _shell_0000000280   
       280   8  2.916535E+01  2.490049E+00  7.232272E-01  1.811197E+00  3.404085E-04  3.404085E-04 _shell_0000000280   
       281   1  3.116374E+01  4.434756E-01 -2.878517E-02  6.624724E-01 -3.747423E-03  3.747415E-03 _shell_0000000281   
       281   2  2.847206E+01  4.322327E-01  2.134123E-02  6.624639E-01  3.747401E-03  3.747411E-03 _shell_0000000281   
       281   3  3.115247E+01  3.156974E-01 -3.219076E-02  6.624714E-01 -3.747395E-03 -3.747405E-03 _shell_0000000281   
       281   4  2.848327E+01  3.269407E-01  7.040186E-02  6.624634E-01  3.747422E-03 -3.747414E-03 _shell_0000000281   
       281   5  3.116374E+01  4.434756E-01 -2.878517E-02  6.624724E-01  3.747423E-03 -3.747415E-03 _shell_0000000281   
       281   6  2.847206E+01  4.322327E-01  2.134123E-02  6.624639E-01 -3.747401E-03 -3.747411E-03 _shell_0000000281   
       281   7  3.115247E+01  3.156974E-01 -3.219076E-02  6.624714E-01  3.747395E-03  3.747405E-03 _shell_0000000281   
       281   8  2.848327E+01  3.269407E-01  7.040186E-02  6.624634E-01 -3.747422E-03  3.747414E-03 _shell_0000000281   
       282   1  2.620897E+01 -4.468716E-01 -1.320693E+00  1.242851E+00  9.060693E-02  9.060693E-02 _shell_0000000282   
       282   2  2.648079E+01  7.162933E-01  2.983991E-01  1.242851E+00  9.060694E-02 -9.060694E-02 _shell_0000000282   
       282   3  2.773204E+01 -1.750507E-01 -4.048905E-01  1.242851E+00 -9.060694E-02  9.060694E-02 _shell_0000000282   
       282   4  2.746022E+01  4.444725E-01 -5.429508E-02  1.242851E+00 -9.060693E-02 -9.060693E-02 _shell_0000000282   
       282   5  2.620897E+01 -4.468716E-01 -1.320693E+00  1.242851E+00 -9.060693E-02 -9.060693E-02 _shell_0000000282   
       282   6  2.648079E+01  7.162933E-01  2.983991E-01  1.242851E+00 -9.060694E-02  9.060694E-02 _shell_0000000282   
       282   7  2.773204E+01 -1.750507E-01 -4.048905E-01  1.242851E+00  9.060694E-02 -9.060694E-02 _shell_0000000282   
       282   8  2.746022E+01  4.444725E-01 -5.429508E-02  1.242851E+00  9.060693E-02  9.060693E-02 _shell_0000000282   
       283   1  2.689541E+01  2.907013E-01 -1.177671E-01  5.660588E-01  1.079496E-03 -1.079496E-03 _shell_0000000283   
       283   2  2.424028E+01  2.939398E-01 -7.558743E-03  5.660575E-01 -1.079495E-03 -1.079496E-03 _shell_0000000283   
       283   3  2.689865E+01  2.579408E-01  4.264089E-02  5.660588E-01  1.079495E-03  1.079496E-03 _shell_0000000283   
       283   4  2.423704E+01  2.547023E-01  1.377364E-01  5.660575E-01 -1.079497E-03  1.079496E-03 _shell_0000000283   
       283   5  2.689541E+01  2.907013E-01 -1.177671E-01  5.660588E-01 -1.079496E-03  1.079496E-03 _shell_0000000283   
       283   6  2.424028E+01  2.939398E-01 -7.558743E-03  5.660575E-01  1.079495E-03  1.079496E-03 _shell_0000000283   
       283   7  2.689865E+01  2.579408E-01  4.264089E-02  5.660588E-01 -1.079495E-03 -1.079496E-03 _shell_0000000283   
       283   8  2.423704E+01  2.547023E-01  1.377364E-01  5.660575E-01  1.079496E-03 -1.079496E-03 _shell_0000000283   
       284   1  1.222871E-05 -2.800840E-05 -8.728782E-06  1.579464E-05  2.457700E-08 -2.457699E-08 _shell_0000000284   
       284   2  1.459193E-05 -2.793467E-05  3.115892E-07  1.579465E-05 -2.457699E-08 -2.457699E-08 _shell_0000000284   
       284   3  1.230244E-05 -2.668714E-05 -8.249914E-06  1.579464E-05  2.457698E-08  2.457698E-08 _shell_0000000284   
       284   4  1.451820E-05 -2.676088E-05  4.463815E-07  1.579464E-05 -2.457700E-08  2.457699E-08 _shell_0000000284   
       284   5  1.222871E-05 -2.800840E-05 -8.728782E-06  1.579464E-05 -2.457700E-08  2.457699E-08 _shell_0000000284   
       284   6  1.459193E-05 -2.793467E-05  3.115892E-07  1.579465E-05  2.457699E-08  2.457699E-08 _shell_0000000284   
       284   7  1.230244E-05 -2.668714E-05 -8.249914E-06  1.579464E-05 -2.457698E-08 -2.457698E-08 _shell_0000000284   
       284   8  1.451820E-05 -2.676088E-05  4.463815E-07  1.579464E-05  2.457700E-08 -2.457699E-08 _shell_0000000284   
       285   1  3.192166E-05  1.063371E-05  4.823182E-06  2.999034E-05 -3.331620E-07  3.331620E-07 _shell_0000000285   
       285   2  3.239943E-05  9.634224E-06  1.011731E-05  2.999034E-05  3.331620E-07  3.331620E-07 _shell_0000000285   
       285   3  3.092218E-05 -2.257557E-05 -4.032296E-06  2.999034E-05 -3.331620E-07 -3.331620E-07 _shell_0000000285   
       285   4  3.339891E-05 -2.157609E-05  5.926099E-06  2.999034E-05  3.331620E-07 -3.331620E-07 _shell_0000000285   
       285   5  3.192166E-05  1.063371E-05  4.823182E-06  2.999034E-05  3.331620E-07 -3.331620E-07 _shell_0000000285   
       285   6  3.239943E-05  9.634224E-06  1.011731E-05  2.999034E-05 -3.331620E-07 -3.331620E-07 _shell_0000000285   
       285   7  3.092218E-05 -2.257557E-05 -4.032296E-06  2.999034E-05  3.331620E-07  3.331620E-07 _shell_0000000285   
       285   8  3.339891E-05 -2.157609E-05  5.926099E-06  2.999034E-05 -3.331620E-07  3.331620E-07 _shell_0000000285   
       286   1  1.216205E-05 -3.101810E-05 -1.009734E-05  1.556993E-05  9.886690E-08  9.886691E-08 _shell_0000000286   
       286   2  1.186545E-05 -3.909339E-05 -1.376606E-05  1.556993E-05  9.886691E-08 -9.886691E-08 _shell_0000000286   
       286   3  1.516708E-05 -3.131470E-05 -5.056114E-07  1.556993E-05 -9.886691E-08  9.886691E-08 _shell_0000000286   
       286   4  1.546368E-05 -3.879679E-05 -2.790196E-06  1.556993E-05 -9.886690E-08 -9.886691E-08 _shell_0000000286   
       286   5  1.216205E-05 -3.101810E-05 -1.009734E-05  1.556993E-05 -9.886690E-08 -9.886691E-08 _shell_0000000286   
       286   6  1.186545E-05 -3.909339E-05 -1.376606E-05  1.556993E-05 -9.886691E-08  9.886691E-08 _shell_0000000286   
       286   7  1.516708E-05 -3.131470E-05 -5.056114E-07  1.556993E-05  9.886691E-08 -9.886691E-08 _shell_0000000286   
       286   8  1.546368E-05 -3.879679E-05 -2.790196E-06  1.556993E-05  9.886690E-08  9.886691E-08 _shell_0000000286   
       287   1  1.346555E-05 -2.791152E-05  2.131572E-06  1.404012E-05 -1.564098E-08 -1.564098E-08 _shell_0000000287   
       287   2  1.351247E-05 -3.221478E-05  1.083913E-06  1.404012E-05 -1.564098E-08  1.564098E-08 _shell_0000000287   
       287   3  1.148984E-05 -2.786460E-05 -9.086888E-08  1.404012E-05  1.564098E-08 -1.564098E-08 _shell_0000000287   
       287   4  1.144292E-05 -3.226171E-05 -1.357501E-06  1.404012E-05  1.564098E-08  1.564098E-08 _shell_0000000287   
       287   5  1.346555E-05 -2.791152E-05  2.131572E-06  1.404012E-05  1.564098E-08  1.564098E-08 _shell_0000000287   
       287   6  1.351247E-05 -3.221478E-05  1.083913E-06  1.404012E-05  1.564098E-08 -1.564098E-08 _shell_0000000287   
       287   7  1.148984E-05 -2.786460E-05 -9.086888E-08  1.404012E-05 -1.564098E-08  1.564098E-08 _shell_0000000287   
       287   8  1.144292E-05 -3.226171E-05 -1.357501E-06  1.404012E-05 -1.564098E-08 -1.564098E-08 _shell_0000000287   
       288   1 -3.002522E-05 -3.880840E-05 -1.194521E-05  3.077776E-05 -5.592876E-07  5.592876E-07 _shell_0000000288   
       288   2 -2.400020E-05 -3.713054E-05 -6.287468E-06  3.077776E-05  5.592876E-07  5.592876E-07 _shell_0000000288   
       288   3 -2.834736E-05 -2.487731E-05 -3.501824E-06  3.077776E-05 -5.592876E-07 -5.592876E-07 _shell_0000000288   
       288   4 -2.567806E-05 -2.655517E-05 -5.674110E-06  3.077776E-05  5.592876E-07 -5.592876E-07 _shell_0000000288   
       288   5 -3.002522E-05 -3.880840E-05 -1.194521E-05  3.077776E-05  5.592876E-07 -5.592876E-07 _shell_0000000288   
       288   6 -2.400020E-05 -3.713054E-05 -6.287468E-06  3.077776E-05 -5.592876E-07 -5.592876E-07 _shell_0000000288   
       288   7 -2.834736E-05 -2.487731E-05 -3.501824E-06  3.077776E-05  5.592876E-07  5.592876E-07 _shell_0000000288   
       288   8 -2.567806E-05 -2.655517E-05 -5.674110E-06  3.077776E-05 -5.592876E-07  5.592876E-07 _shell_0000000288   
       289   1  2.167234E+01  1.034328E+01 -6.758368E-01  8.193049E+00 -3.620685E-01 -3.620685E-01 _shell_0000000289   
       289   2  2.275855E+01 -1.315803E+00 -1.801660E+00  8.193049E+00 -3.620685E-01  3.620685E-01 _shell_0000000289   
       289   3  4.978850E+00  1.142949E+01  1.247891E+00  8.193049E+00  3.620685E-01 -3.620685E-01 _shell_0000000289   
       289   4  3.892645E+00 -2.402008E+00 -4.946891E+00  8.193049E+00  3.620685E-01  3.620685E-01 _shell_0000000289   
       289   5  2.167234E+01  1.034328E+01 -6.758368E-01  8.193049E+00  3.620685E-01  3.620685E-01 _shell_0000000289   
       289   6  2.275855E+01 -1.315803E+00 -1.801660E+00  8.193049E+00  3.620685E-01 -3.620685E-01 _shell_0000000289   
       289   7  4.978850E+00  1.142949E+01  1.247891E+00  8.193049E+00 -3.620685E-01  3.620685E-01 _shell_0000000289   
       289   8  3.892645E+00 -2.402008E+00 -4.946891E+00  8.193049E+00 -3.620685E-01 -3.620685E-01 _shell_0000000289   
       290   1 -1.622103E+01 -2.130163E+01  1.395273E+00  1.595567E+01  1.545679E-01 -1.545679E-01 _shell_0000000290   
       290   2 -1.433168E+01 -2.176533E+01  1.161899E-01  1.595567E+01 -1.545679E-01 -1.545679E-01 _shell_0000000290   
       290   3 -1.668473E+01 -1.469299E+01 -3.577699E-01  1.595567E+01  1.545679E-01  1.545679E-01 _shell_0000000290   
       290   4 -1.386798E+01 -1.422929E+01  5.270974E-01  1.595567E+01 -1.545679E-01  1.545679E-01 _shell_0000000290   
       290   5 -1.622103E+01 -2.130163E+01  1.395273E+00  1.595567E+01 -1.545679E-01  1.545679E-01 _shell_0000000290   
       290   6 -1.433168E+01 -2.176533E+01  1.161899E-01  1.595567E+01  1.545679E-01  1.545679E-01 _shell_0000000290   
       290   7 -1.668473E+01 -1.469299E+01 -3.577699E-01  1.595567E+01 -1.545679E-01 -1.545679E-01 _shell_0000000290   
       290   8 -1.386798E+01 -1.422929E+01  5.270974E-01  1.595567E+01  1.545679E-01 -1.545679E-01 _shell_0000000290   
       291   1  2.339854E+01  1.880952E+01  1.275985E+00  1.707094E+01 -2.727921E-01  2.727921E-01 _shell_0000000291   
       291   2  3.585251E+01  1.799115E+01  2.353327E+00  1.707094E+01  2.727921E-01  2.727921E-01 _shell_0000000291   
       291   3  2.258017E+01  4.859139E+00 -2.990198E-01  1.707094E+01 -2.727921E-01 -2.727921E-01 _shell_0000000291   
       291   4  3.667089E+01  5.677515E+00  4.597410E+00  1.707094E+01  2.727921E-01 -2.727921E-01 _shell_0000000291   
       291   5  2.339854E+01  1.880952E+01  1.275985E+00  1.707094E+01  2.727921E-01 -2.727921E-01 _shell_0000000291   
       291   6  3.585251E+01  1.799115E+01  2.353327E+00  1.707094E+01 -2.727921E-01 -2.727921E-01 _shell_0000000291   
       291   7  2.258017E+01  4.859139E+00 -2.990198E-01  1.707094E+01  2.727921E-01  2.727921E-01 _shell_0000000291   
       291   8  3.667089E+01  5.677515E+00  4.597410E+00  1.707094E+01 -2.727921E-01  2.727921E-01 _shell_0000000291   