
                        S T E P       1


                                INCREMENT     1


 stresses (elem, integ.pnt.,sxx,syy,szz,sxy,sxz,syz) for set SOLIDMATERIALELEMENTGEOMETRY2D and time  0.1000000E+01

       261   1  6.872250E+01 -3.894112E-03 -1.502859E-02  1.392112E-02 -2.662292E-03 -2.682063E-03 _shell_0000000261   
       261   2  6.866984E+01 -1.503601E-02 -1.276909E-02  1.257098E-02 -2.667857E-03  2.681799E-03 _shell_0000000261   
       261   3  6.491275E+01  2.881605E-03  1.365602E-02  7.135759E-03  2.665365E-03 -2.679294E-03 _shell_0000000261   
       261   4  6.484912E+01 -2.178767E-02 -1.817281E-02  8.451240E-03  2.655178E-03  2.674896E-03 _shell_0000000261   
       261   5  6.872250E+01 -3.894112E-03 -1.502859E-02  1.392112E-02  2.662292E-03  2.682063E-03 _shell_0000000261   
       261   6  6.866984E+01 -1.503601E-02 -1.276909E-02  1.257098E-02  2.667857E-03 -2.681799E-03 _shell_0000000261   
       261   7  6.491275E+01  2.881605E-03  1.365602E-02  7.135759E-03 -2.665365E-03  2.679294E-03 _shell_0000000261   
       261   8  6.484912E+01 -2.178767E-02 -1.817281E-02  8.451240E-03 -2.655178E-03 -2.674896E-03 _shell_0000000261   
       262   1  6.203294E+01 -2.482202E-02 -2.647734E-02  1.384592E-02 -1.506061E-04 -1.507707E-04 _shell_0000000262   
       262   2  6.211063E+01  2.022652E-02  2.259274E-02  1.509070E-02 -1.523449E-04  1.524910E-04 _shell_0000000262   
       262   3  5.820989E+01 -2.274423E-02 -2.584283E-02 -5.159829E-03  1.523720E-04 -1.525182E-04 _shell_0000000262   
       262   4  5.827959E+01  1.793423E-02  1.652075E-02 -5.960824E-03  1.510025E-04  1.511675E-04 _shell_0000000262   
       262   5  6.203294E+01 -2.482202E-02 -2.647734E-02  1.384592E-02  1.506061E-04  1.507707E-04 _shell_0000000262   
       262   6  6.211063E+01  2.022652E-02  2.259274E-02  1.509070E-02  1.523449E-04 -1.524910E-04 _shell_0000000262   
       262   7  5.820989E+01 -2.274423E-02 -2.584283E-02 -5.159829E-03 -1.523720E-04  1.525182E-04 _shell_0000000262   
       262   8  5.827959E+01  1.793423E-02  1.652075E-02 -5.960824E-03 -1.510025E-04 -1.511675E-04 _shell_0000000262   
       263   1  5.541532E+01 -1.398998E-02 -1.918897E-02  8.013290E-03 -3.491727E-04 -3.482576E-04 _shell_0000000263   
       263   2  5.546928E+01  1.775840E-02  1.293766E-02  8.910667E-03 -3.517732E-04  3.512823E-04 _shell_0000000263   
       263   3  5.158748E+01 -1.164593E-02 -1.229408E-02 -3.833327E-03  3.518207E-04 -3.513298E-04 _shell_0000000263   
       263   4  5.163389E+01  1.533407E-02  1.140363E-02 -4.501563E-03  3.498754E-04  3.489585E-04 _shell_0000000263   
       263   5  5.541532E+01 -1.398998E-02 -1.918897E-02  8.013290E-03  3.491727E-04  3.482576E-04 _shell_0000000263   
       263   6  5.546928E+01  1.775840E-02  1.293766E-02  8.910667E-03  3.517732E-04 -3.512823E-04 _shell_0000000263   
       263   7  5.158748E+01 -1.164593E-02 -1.229408E-02 -3.833327E-03 -3.518208E-04  3.513298E-04 _shell_0000000263   
       263   8  5.163389E+01  1.533407E-02  1.140363E-02 -4.501563E-03 -3.498754E-04 -3.489585E-04 _shell_0000000263   
       264   1  6.205686E+01  2.280939E-02  8.488114E-03  7.680948E-03  2.943159E-04 -2.946407E-04 _shell_0000000264   
       264   2  5.823689E+01  2.272434E-02  8.457367E-03 -9.389572E-03 -2.922976E-04 -2.934863E-04 _shell_0000000264   
       264   3  6.201639E+01 -8.824608E-03 -1.077767E-02  6.591489E-03  2.917049E-04  2.928913E-04 _shell_0000000264   
       264   4  5.819842E+01 -8.852704E-03 -1.250328E-02 -8.465442E-03 -2.945269E-04  2.948519E-04 _shell_0000000264   
       264   5  6.205686E+01  2.280939E-02  8.488114E-03  7.680948E-03 -2.943159E-04  2.946407E-04 _shell_0000000264   
       264   6  5.823689E+01  2.272434E-02  8.457367E-03 -9.389572E-03  2.922975E-04  2.934863E-04 _shell_0000000264   
       264   7  6.201639E+01 -8.824608E-03 -1.077767E-02  6.591489E-03 -2.917049E-04 -2.928913E-04 _shell_0000000264   
       264   8  5.819842E+01 -8.852704E-03 -1.250328E-02 -8.465442E-03  2.945269E-04 -2.948519E-04 _shell_0000000264   
       265   1  5.538163E+01  1.925060E-02 -1.018078E-02 -8.883381E-04 -3.096734E-05 -3.101051E-05 _shell_0000000265   
       265   2  5.541452E+01  5.731819E-02  9.548727E-03 -3.493082E-04 -3.109694E-05  3.109000E-05 _shell_0000000265   
       265   3  5.155999E+01  2.017778E-02 -9.825378E-03 -7.320718E-03  3.110032E-05 -3.109339E-05 _shell_0000000265   
       265   4  5.158934E+01  5.641847E-02  7.302841E-03 -7.791354E-03  3.100677E-05  3.105000E-05 _shell_0000000265   
       265   5  5.538163E+01  1.925060E-02 -1.018078E-02 -8.883381E-04  3.096733E-05  3.101051E-05 _shell_0000000265   
       265   6  5.541452E+01  5.731819E-02  9.548727E-03 -3.493082E-04  3.109693E-05 -3.109000E-05 _shell_0000000265   
       265   7  5.155999E+01  2.017778E-02 -9.825378E-03 -7.320718E-03 -3.110032E-05  3.109339E-05 _shell_0000000265   
       265   8  5.158934E+01  5.641847E-02  7.302841E-03 -7.791354E-03 -3.100677E-05 -3.105001E-05 _shell_0000000265   
       266   1  3.525450E+01  5.323686E-01 -8.492667E-02  1.031792E+00 -1.038735E-02 -1.038736E-02 _shell_0000000266   
       266   2  3.528567E+01  7.142102E-01 -1.765018E-02  1.031792E+00 -1.038736E-02  1.038736E-02 _shell_0000000266   
       266   3  3.245512E+01  5.635309E-01  8.357886E-02  1.031791E+00  1.038736E-02 -1.038736E-02 _shell_0000000266   
       266   4  3.242396E+01  6.830481E-01  5.432067E-03  1.031791E+00  1.038736E-02  1.038736E-02 _shell_0000000266   
       266   5  3.525450E+01  5.323686E-01 -8.492667E-02  1.031792E+00  1.038735E-02  1.038736E-02 _shell_0000000266   
       266   6  3.528567E+01  7.142102E-01 -1.765018E-02  1.031792E+00  1.038736E-02 -1.038736E-02 _shell_0000000266   
       266   7  3.245512E+01  5.635309E-01  8.357886E-02  1.031791E+00 -1.038736E-02  1.038736E-02 _shell_0000000266   
       266   8  3.242396E+01  6.830481E-01  5.432067E-03  1.031791E+00 -1.038736E-02 -1.038736E-02 _shell_0000000266   
       267   1  2.950252E+01 -1.197661E-02 -1.244490E-01  2.787508E-01 -3.563066E-03  3.563065E-03 _shell_0000000267   
       267   2  2.588613E+01 -2.266608E-02 -1.183042E-01  2.787481E-01  3.563061E-03  3.563064E-03 _shell_0000000267   
       267   3  2.949182E+01  1.219976E-01  1.201537E-02  2.787507E-01 -3.563060E-03 -3.563062E-03 _shell_0000000267   
       267   4  2.589681E+01  1.326871E-01  6.804374E-02  2.787482E-01  3.563066E-03 -3.563064E-03 _shell_0000000267   
       267   5  2.950252E+01 -1.197661E-02 -1.244490E-01  2.787508E-01  3.563066E-03 -3.563065E-03 _shell_0000000267   
       267   6  2.588613E+01 -2.266608E-02 -1.183042E-01  2.787481E-01 -3.563061E-03 -3.563064E-03 _shell_0000000267   
       267   7  2.949182E+01  1.219976E-01  1.201537E-02  2.787507E-01  3.563060E-03  3.563062E-03 _shell_0000000267   
       267   8  2.589681E+01  1.326871E-01  6.804374E-02  2.787482E-01 -3.563066E-03  3.563064E-03 _shell_0000000267   
       268   1 -2.799654E+01  6.650112E+00  9.795372E-01  1.965235E+01  3.857089E-02 -3.857089E-02 _shell_0000000268   
       268   2 -2.525725E+01  6.534399E+00 -7.714013E-01  1.965235E+01 -3.857089E-02 -3.857089E-02 _shell_0000000268   
       268   3 -2.811225E+01  4.038931E+00  3.018512E-01  1.965235E+01  3.857089E-02  3.857089E-02 _shell_0000000268   
       268   4 -2.514154E+01  4.154644E+00 -9.090949E-01  1.965235E+01 -3.857089E-02  3.857089E-02 _shell_0000000268   
       268   5 -2.799654E+01  6.650112E+00  9.795372E-01  1.965235E+01 -3.857089E-02  3.857089E-02 _shell_0000000268   
       268   6 -2.525725E+01  6.534399E+00 -7.714013E-01  1.965235E+01  3.857089E-02  3.857089E-02 _shell_0000000268   
       268   7 -2.811225E+01  4.038931E+00  3.018512E-01  1.965235E+01 -3.857089E-02 -3.857089E-02 _shell_0000000268   
       268   8 -2.514154E+01  4.154644E+00 -9.090949E-01  1.965235E+01  3.857089E-02 -3.857089E-02 _shell_0000000268   
       269   1 -2.726178E+01  1.242410E+00  3.738962E-01  2.326873E+01  4.913821E-02 -4.913821E-02 _shell_0000000269   
       269   2 -2.347426E+01  1.094995E+00 -3.370658E-01  2.326873E+01 -4.913821E-02 -4.913821E-02 _shell_0000000269   
       269   3 -2.740920E+01 -5.883207E+00 -1.565530E-01  2.326873E+01  4.913821E-02  4.913821E-02 _shell_0000000269   
       269   4 -2.332684E+01 -5.735792E+00 -1.795801E-01  2.326873E+01 -4.913821E-02  4.913821E-02 _shell_0000000269   
       269   5 -2.726178E+01  1.242410E+00  3.738962E-01  2.326873E+01 -4.913821E-02  4.913821E-02 _shell_0000000269   
       269   6 -2.347426E+01  1.094995E+00 -3.370658E-01  2.326873E+01  4.913821E-02  4.913821E-02 _shell_0000000269   
       269   7 -2.740920E+01 -5.883207E+00 -1.565530E-01  2.326873E+01 -4.913821E-02 -4.913821E-02 _shell_0000000269   
       269   8 -2.332684E+01 -5.735792E+00 -1.795801E-01  2.326873E+01  4.913821E-02 -4.913821E-02 _shell_0000000269   
       270   1 -1.881046E+01  1.412639E+01  8.938333E-01  1.988847E+01  1.520658E-01 -1.520658E-01 _shell_0000000270   
       270   2 -1.295657E+01  1.367019E+01 -1.905750E+00  1.988847E+01 -1.520658E-01 -1.520658E-01 _shell_0000000270   
       270   3 -1.926665E+01  9.658210E+00  6.837290E-01  1.988847E+01  1.520658E-01  1.520658E-01 _shell_0000000270   
       270   4 -1.250038E+01  1.011441E+01  1.306654E-02  1.988847E+01 -1.520658E-01  1.520658E-01 _shell_0000000270   
       270   5 -1.881046E+01  1.412639E+01  8.938333E-01  1.988847E+01 -1.520658E-01  1.520658E-01 _shell_0000000270   
       270   6 -1.295657E+01  1.367019E+01 -1.905750E+00  1.988847E+01  1.520658E-01  1.520658E-01 _shell_0000000270   
       270   7 -1.926665E+01  9.658210E+00  6.837290E-01  1.988847E+01 -1.520658E-01 -1.520658E-01 _shell_0000000270   
       270   8 -1.250038E+01  1.011441E+01  1.306654E-02  1.988847E+01  1.520658E-01 -1.520658E-01 _shell_0000000270   
       271   1 -1.878133E+01 -6.373344E+00 -3.165309E-01  2.499876E+01 -1.878456E-03 -1.878456E-03 _shell_0000000271   
       271   2 -1.878696E+01  4.635529E+00  6.420406E-01  2.499876E+01 -1.878456E-03  1.878456E-03 _shell_0000000271   
       271   3 -1.180916E+01 -6.378979E+00 -5.118002E-01  2.499876E+01  1.878456E-03 -1.878456E-03 _shell_0000000271   
       271   4 -1.180353E+01  4.641165E+00  4.730697E-01  2.499876E+01  1.878456E-03  1.878456E-03 _shell_0000000271   
       271   5 -1.878133E+01 -6.373344E+00 -3.165309E-01  2.499876E+01  1.878456E-03  1.878456E-03 _shell_0000000271   
       271   6 -1.878696E+01  4.635529E+00  6.420406E-01  2.499876E+01  1.878456E-03 -1.878456E-03 _shell_0000000271   
       271   7 -1.180916E+01 -6.378979E+00 -5.118002E-01  2.499876E+01 -1.878456E-03  1.878456E-03 _shell_0000000271   
       271   8 -1.180353E+01  4.641165E+00  4.730697E-01  2.499876E+01 -1.878456E-03 -1.878456E-03 _shell_0000000271   
       272   1 -1.780197E+01 -1.281049E+01 -1.551554E-01  2.377431E+01  1.290579E-01 -1.290579E-01 _shell_0000000272   
       272   2 -1.337245E+01 -1.319766E+01 -7.435505E-01  2.377431E+01 -1.290579E-01 -1.290579E-01 _shell_0000000272   
       272   3 -1.818914E+01 -1.994909E+01  1.588833E-01  2.377431E+01  1.290579E-01  1.290579E-01 _shell_0000000272   
       272   4 -1.298528E+01 -1.956192E+01  1.377298E+00  2.377431E+01 -1.290579E-01  1.290579E-01 _shell_0000000272   
       272   5 -1.780197E+01 -1.281049E+01 -1.551554E-01  2.377431E+01 -1.290579E-01  1.290579E-01 _shell_0000000272   
       272   6 -1.337245E+01 -1.319766E+01 -7.435505E-01  2.377431E+01  1.290579E-01  1.290579E-01 _shell_0000000272   
       272   7 -1.818914E+01 -1.994909E+01  1.588833E-01  2.377431E+01 -1.290579E-01 -1.290579E-01 _shell_0000000272   
       272   8 -1.298528E+01 -1.956192E+01  1.377298E+00  2.377431E+01  1.290579E-01 -1.290579E-01 _shell_0000000272   
       273   1  4.839508E-06 -2.112843E-05 -1.177997E-05  5.190549E-05 -5.071158E-07  5.071158E-07 _shell_0000000273   
       273   2  2.397118E-05 -1.960708E-05 -4.842727E-06  5.190549E-05  5.071158E-07  5.071158E-07 _shell_0000000273   
       273   3  6.360855E-06 -1.410638E-05 -1.043441E-06  5.190549E-05 -5.071158E-07 -5.071158E-07 _shell_0000000273   
       273   4  2.244983E-05 -1.562773E-05 -1.205821E-06  5.190549E-05  5.071158E-07 -5.071158E-07 _shell_0000000273   
       273   5  4.839508E-06 -2.112843E-05 -1.177997E-05  5.190549E-05  5.071158E-07 -5.071158E-07 _shell_0000000273   
       273   6  2.397118E-05 -1.960708E-05 -4.842727E-06  5.190549E-05 -5.071158E-07 -5.071158E-07 _shell_0000000273   
       273   7  6.360855E-06 -1.410638E-05 -1.043441E-06  5.190549E-05  5.071158E-07  5.071158E-07 _shell_0000000273   
       273   8  2.244983E-05 -1.562773E-05 -1.205821E-06  5.190549E-05 -5.071158E-07  5.071158E-07 _shell_0000000273   
       274   1 -3.428511E-07 -6.708953E-07  2.005343E-08  7.513276E-07  3.059923E-09 -3.059923E-09 _shell_0000000274   
       274   2  4.111374E-07 -6.617156E-07 -1.355802E-07  7.513276E-07 -3.059923E-09 -3.059923E-09 _shell_0000000274   
       274   3 -3.336713E-07 -5.712918E-07  2.137678E-07  7.513276E-07  3.059923E-09  3.059923E-09 _shell_0000000274   
       274   4  4.019577E-07 -5.804716E-07  1.529523E-08  7.513276E-07 -3.059923E-09  3.059923E-09 _shell_0000000274   
       274   5 -3.428511E-07 -6.708953E-07  2.005343E-08  7.513276E-07 -3.059923E-09  3.059923E-09 _shell_0000000274   
       274   6  4.111374E-07 -6.617156E-07 -1.355802E-07  7.513276E-07  3.059923E-09  3.059923E-09 _shell_0000000274   
       274   7 -3.336713E-07 -5.712918E-07  2.137678E-07  7.513276E-07 -3.059923E-09 -3.059923E-09 _shell_0000000274   
       274   8  4.019577E-07 -5.804716E-07  1.529523E-08  7.513276E-07  3.059923E-09 -3.059923E-09 _shell_0000000274   
       275   1  8.625899E-07 -4.885214E-07 -1.878723E-08  1.026665E-07 -4.065615E-09  4.065615E-09 _shell_0000000275   
       275   2  2.131666E-07 -4.763245E-07  1.475045E-07  1.026665E-07  4.065615E-09  4.065615E-09 _shell_0000000275   
       275   3  8.747868E-07 -4.733372E-07 -7.420224E-08  1.026665E-07 -4.065615E-09 -4.065615E-09 _shell_0000000275   
       275   4  2.009698E-07 -4.855341E-07  3.517083E-08  1.026665E-07  4.065615E-09 -4.065615E-09 _shell_0000000275   
       275   5  8.625899E-07 -4.885214E-07 -1.878723E-08  1.026665E-07  4.065615E-09 -4.065615E-09 _shell_0000000275   
       275   6  2.131666E-07 -4.763245E-07  1.475045E-07  1.026665E-07 -4.065615E-09 -4.065615E-09 _shell_0000000275   
       275   7  8.747868E-07 -4.733372E-07 -7.420224E-08  1.026665E-07  4.065615E-09  4.065615E-09 _shell_0000000275   
       275   8  2.009698E-07 -4.855341E-07  3.517083E-08  1.026665E-07 -4.065615E-09  4.065615E-09 _shell_0000000275   
       276   1 -1.100075E-06 -1.528732E-06 -2.090879E-08  1.497672E-06 -2.422518E-09  2.422518E-09 _shell_0000000276   
       276   2 -1.358337E-06 -1.521465E-06  2.591264E-07  1.497672E-06  2.422518E-09  2.422518E-09 _shell_0000000276   
       276   3 -1.092808E-06 -1.525852E-06 -1.998137E-07  1.497672E-06 -2.422518E-09 -2.422518E-09 _shell_0000000276   
       276   4 -1.365605E-06 -1.533120E-06  4.630619E-08  1.497672E-06  2.422518E-09 -2.422518E-09 _shell_0000000276   
       276   5 -1.100075E-06 -1.528732E-06 -2.090879E-08  1.497672E-06  2.422518E-09 -2.422518E-09 _shell_0000000276   
       276   6 -1.358337E-06 -1.521465E-06  2.591264E-07  1.497672E-06 -2.422518E-09 -2.422518E-09 _shell_0000000276   
       276   7 -1.092808E-06 -1.525852E-06 -1.998137E-07  1.497672E-06  2.422518E-09  2.422518E-09 _shell_0000000276   
       276   8 -1.365605E-06 -1.533120E-06  4.630619E-08  1.497672E-06 -2.422518E-09  2.422518E-09 _shell_0000000276   
       277   1 -4.362997E-07 -1.147183E-06 -1.389470E-07  5.361010E-07 -3.320967E-09 -3.320967E-09 _shell_0000000277   
       277   2 -4.462626E-07 -1.231317E-06 -3.314599E-08  5.361010E-07 -3.320967E-09  3.320967E-09 _shell_0000000277   
       277   3 -7.266077E-07 -1.157146E-06  4.470943E-08  5.361010E-07  3.320967E-09 -3.320967E-09 _shell_0000000277   
       277   4 -7.166448E-07 -1.221354E-06  1.970039E-07  5.361010E-07  3.320967E-09  3.320967E-09 _shell_0000000277   
       277   5 -4.362997E-07 -1.147183E-06 -1.389470E-07  5.361010E-07  3.320967E-09  3.320967E-09 _shell_0000000277   
       277   6 -4.462626E-07 -1.231317E-06 -3.314599E-08  5.361010E-07  3.320967E-09 -3.320967E-09 _shell_0000000277   
       277   7 -7.266077E-07 -1.157146E-06  4.470943E-08  5.361010E-07 -3.320967E-09  3.320967E-09 _shell_0000000277   
       277   8 -7.166448E-07 -1.221354E-06  1.970039E-07  5.361010E-07 -3.320967E-09 -3.320967E-09 _shell_0000000277   
       278   1  3.256674E+01  1.075536E+00  1.807565E-01  1.619808E+00 -2.047394E-04  2.047394E-04 _shell_0000000278   
       278   2  3.443082E+01  1.076150E+00 -1.120121E-01  1.619808E+00  2.047393E-04  2.047394E-04 _shell_0000000278   
       278   3  3.256735E+01  2.372912E+00  7.150958E-01  1.619808E+00 -2.047393E-04 -2.047394E-04 _shell_0000000278   
       278   4  3.443021E+01  2.372298E+00  4.194608E-01  1.619808E+00  2.047394E-04 -2.047394E-04 _shell_0000000278   
       278   5  3.256674E+01  1.075536E+00  1.807565E-01  1.619808E+00  2.047394E-04 -2.047394E-04 _shell_0000000278   
       278   6  3.443082E+01  1.076150E+00 -1.120121E-01  1.619808E+00 -2.047393E-04 -2.047394E-04 _shell_0000000278   
       278   7  3.256735E+01  2.372912E+00  7.150958E-01  1.619808E+00  2.047393E-04  2.047394E-04 _shell_0000000278   
       278   8  3.443021E+01  2.372298E+00  4.194608E-01  1.619808E+00 -2.047394E-04  2.047394E-04 _shell_0000000278   
       279   1  3.077613E+01 -3.767523E-02 -3.630892E-01  1.269948E+00 -1.007918E-01  1.007918E-01 _shell_0000000279   
       279   2  2.881059E+01 -3.400507E-01 -1.399563E+00  1.269948E+00  1.007918E-01  1.007918E-01 _shell_0000000279   
       279   3  3.047375E+01  4.468974E-01 -7.047130E-02  1.269948E+00 -1.007918E-01 -1.007918E-01 _shell_0000000279   
       279   4  2.911297E+01  7.492729E-01  3.041404E-01  1.269948E+00  1.007918E-01 -1.007918E-01 _shell_0000000279   
       279   5  3.077613E+01 -3.767523E-02 -3.630892E-01  1.269948E+00  1.007918E-01 -1.007918E-01 _shell_0000000279   
       279   6  2.881059E+01 -3.400507E-01 -1.399563E+00  1.269948E+00 -1.007918E-01 -1.007918E-01 _shell_0000000279   
       279   7  3.047375E+01  4.468974E-01 -7.047130E-02  1.269948E+00  1.007918E-01  1.007918E-01 _shell_0000000279   
       279   8  2.911297E+01  7.492729E-01  3.041404E-01  1.269948E+00 -1.007918E-01  1.007918E-01 _shell_0000000279   
       280   1  3.005932E+01  2.562544E-01  3.349220E-02  5.556114E-01 -2.714459E-04 -2.714459E-04 _shell_0000000280   
       280   2  3.006014E+01  2.898702E-01 -1.014074E-01  5.556114E-01 -2.714460E-04  2.714460E-04 _shell_0000000280   
       280   3  2.679899E+01  2.570688E-01  1.353070E-01  5.556111E-01  2.714460E-04 -2.714460E-04 _shell_0000000280   
       280   4  2.679817E+01  2.890558E-01 -3.392828E-03  5.556111E-01  2.714459E-04  2.714460E-04 _shell_0000000280   
       280   5  3.005932E+01  2.562544E-01  3.349220E-02  5.556114E-01  2.714459E-04  2.714459E-04 _shell_0000000280   
       280   6  3.006014E+01  2.898702E-01 -1.014074E-01  5.556114E-01  2.714460E-04 -2.714460E-04 _shell_0000000280   
       280   7  2.679899E+01  2.570688E-01  1.353070E-01  5.556111E-01 -2.714460E-04  2.714460E-04 _shell_0000000280   
       280   8  2.679817E+01  2.890558E-01 -3.392828E-03  5.556111E-01 -2.714459E-04 -2.714459E-04 _shell_0000000280   
       281   1  2.920507E+01  3.384711E-02 -4.692656E-02  1.416607E-01 -6.118761E-04  6.118748E-04 _shell_0000000281   
       281   2  2.543619E+01  3.201023E-02 -3.092273E-02  1.416483E-01  6.118725E-04  6.118741E-04 _shell_0000000281   
       281   3  2.920321E+01  6.693628E-02  9.206316E-03  1.416602E-01 -6.118716E-04 -6.118733E-04 _shell_0000000281   
       281   4  2.543800E+01  6.877321E-02  3.377972E-02  1.416486E-01  6.118759E-04 -6.118746E-04 _shell_0000000281   
       281   5  2.920507E+01  3.384711E-02 -4.692656E-02  1.416607E-01  6.118761E-04 -6.118748E-04 _shell_0000000281   
       281   6  2.543619E+01  3.201023E-02 -3.092273E-02  1.416483E-01 -6.118725E-04 -6.118742E-04 _shell_0000000281   
       281   7  2.920321E+01  6.693628E-02  9.206316E-03  1.416602E-01  6.118716E-04  6.118733E-04 _shell_0000000281   
       281   8  2.543800E+01  6.877321E-02  3.377972E-02  1.416486E-01 -6.118759E-04  6.118746E-04 _shell_0000000281   
       282   1  1.872691E-05 -1.228081E-05 -4.501196E-07  2.293967E-05 -2.948376E-08 -2.948376E-08 _shell_0000000282   
       282   2  1.863846E-05 -1.043304E-05 -1.921064E-07  2.293966E-05 -2.948376E-08  2.948376E-08 _shell_0000000282   
       282   3  2.005713E-05 -1.236926E-05 -3.995127E-06  2.293966E-05  2.948376E-08 -2.948376E-08 _shell_0000000282   
       282   4  2.014558E-05 -1.034459E-05 -3.324341E-06  2.293966E-05  2.948375E-08  2.948376E-08 _shell_0000000282   
       282   5  1.872691E-05 -1.228081E-05 -4.501196E-07  2.293967E-05  2.948376E-08  2.948376E-08 _shell_0000000282   
       282   6  1.863846E-05 -1.043304E-05 -1.921064E-07  2.293966E-05  2.948376E-08 -2.948376E-08 _shell_0000000282   
       282   7  2.005713E-05 -1.236926E-05 -3.995127E-06  2.293966E-05 -2.948376E-08  2.948376E-08 _shell_0000000282   
       282   8  2.014558E-05 -1.034459E-05 -3.324341E-06  2.293966E-05 -2.948375E-08 -2.948376E-08 _shell_0000000282   
       283   1  2.024790E-05 -9.470930E-06 -2.981995E-06  2.224689E-05  1.354744E-08 -1.354744E-08 _shell_0000000283   
       283   2  1.968948E-05 -9.430288E-06  3.097749E-07  2.224689E-05 -1.354743E-08 -1.354744E-08 _shell_0000000283   
       283   3  2.028854E-05 -9.478482E-06 -2.873538E-06  2.224689E-05  1.354743E-08  1.354744E-08 _shell_0000000283   
       283   4  1.964884E-05 -9.519125E-06  2.285677E-07  2.224689E-05 -1.354744E-08  1.354744E-08 _shell_0000000283   
       283   5  2.024790E-05 -9.470930E-06 -2.981995E-06  2.224689E-05 -1.354744E-08  1.354744E-08 _shell_0000000283   
       283   6  1.968948E-05 -9.430288E-06  3.097749E-07  2.224689E-05  1.354743E-08  1.354744E-08 _shell_0000000283   
       283   7  2.028854E-05 -9.478482E-06 -2.873538E-06  2.224689E-05 -1.354743E-08 -1.354744E-08 _shell_0000000283   
       283   8  1.964884E-05 -9.519125E-06  2.285677E-07  2.224689E-05  1.354744E-08 -1.354744E-08 _shell_0000000283   
       284   1  1.834675E-05 -1.149632E-05  4.943710E-07  2.234765E-05 -4.641839E-09  4.641837E-09 _shell_0000000284   
       284   2  1.752203E-05 -1.151025E-05  9.387631E-08  2.234765E-05  4.641836E-09  4.641837E-09 _shell_0000000284   
       284   3  1.833282E-05 -1.124863E-05  4.882352E-07  2.234765E-05 -4.641835E-09 -4.641836E-09 _shell_0000000284   
       284   4  1.753595E-05 -1.123471E-05  1.527263E-07  2.234765E-05  4.641838E-09 -4.641837E-09 _shell_0000000284   
       284   5  1.834675E-05 -1.149632E-05  4.943710E-07  2.234765E-05  4.641839E-09 -4.641837E-09 _shell_0000000284   
       284   6  1.752203E-05 -1.151025E-05  9.387631E-08  2.234765E-05 -4.641836E-09 -4.641837E-09 _shell_0000000284   
       284   7  1.833282E-05 -1.124863E-05  4.882352E-07  2.234765E-05  4.641835E-09  4.641836E-09 _shell_0000000284   
       284   8  1.753595E-05 -1.123471E-05  1.527263E-07  2.234765E-05 -4.641838E-09  4.641837E-09 _shell_0000000284   
       285   1  1.770822E-05 -1.587310E-05 -9.441608E-07  2.184537E-05  2.993833E-07 -2.993833E-07 _shell_0000000285   
       285   2  7.488448E-06 -1.497495E-05  7.225920E-07  2.184537E-05 -2.993833E-07 -2.993833E-07 _shell_0000000285   
       285   3  1.860637E-05 -1.220695E-05  9.824820E-07  2.184537E-05  2.993833E-07  2.993833E-07 _shell_0000000285   
       285   4  6.590298E-06 -1.310510E-05 -1.542132E-06  2.184537E-05 -2.993833E-07  2.993833E-07 _shell_0000000285   
       285   5  1.770822E-05 -1.587310E-05 -9.441608E-07  2.184537E-05 -2.993833E-07  2.993833E-07 _shell_0000000285   
       285   6  7.488448E-06 -1.497495E-05  7.225920E-07  2.184537E-05  2.993833E-07  2.993833E-07 _shell_0000000285   
       285   7  1.860637E-05 -1.220695E-05  9.824820E-07  2.184537E-05 -2.993833E-07 -2.993833E-07 _shell_0000000285   
       285   8  6.590298E-06 -1.310510E-05 -1.542132E-06  2.184537E-05  2.993833E-07 -2.993833E-07 _shell_0000000285   
       286   1  1.829580E-05 -1.110970E-05  7.919434E-07  2.371148E-05  2.090508E-08  2.090509E-08 _shell_0000000286   
       286   2  1.823308E-05 -9.877381E-06  1.604418E-06  2.371148E-05  2.090509E-08 -2.090509E-08 _shell_0000000286   
       286   3  1.749819E-05 -1.117241E-05  4.468538E-07  2.371148E-05 -2.090509E-08  2.090509E-08 _shell_0000000286   
       286   4  1.756090E-05 -9.814666E-06  1.551999E-06  2.371148E-05 -2.090509E-08 -2.090509E-08 _shell_0000000286   
       286   5  1.829580E-05 -1.110970E-05  7.919434E-07  2.371148E-05 -2.090508E-08 -2.090509E-08 _shell_0000000286   
       286   6  1.823308E-05 -9.877381E-06  1.604418E-06  2.371148E-05 -2.090509E-08  2.090509E-08 _shell_0000000286   
       286   7  1.749819E-05 -1.117241E-05  4.468538E-07  2.371148E-05  2.090509E-08 -2.090509E-08 _shell_0000000286   
       286   8  1.756090E-05 -9.814666E-06  1.551999E-06  2.371148E-05  2.090509E-08  2.090509E-08 _shell_0000000286   
       287   1  1.658029E-05 -1.292266E-05 -3.407425E-07  2.218076E-05  3.321105E-08  3.321105E-08 _shell_0000000287   
       287   2  1.648066E-05 -1.247548E-05 -9.973590E-08  2.218076E-05  3.321106E-08 -3.321106E-08 _shell_0000000287   
       287   3  1.611674E-05 -1.302229E-05  4.094845E-07  2.218076E-05 -3.321106E-08  3.321106E-08 _shell_0000000287   
       287   4  1.621638E-05 -1.237584E-05  1.115446E-06  2.218076E-05 -3.321106E-08 -3.321106E-08 _shell_0000000287   
       287   5  1.658029E-05 -1.292266E-05 -3.407425E-07  2.218076E-05 -3.321105E-08 -3.321105E-08 _shell_0000000287   
       287   6  1.648066E-05 -1.247548E-05 -9.973590E-08  2.218076E-05 -3.321106E-08  3.321106E-08 _shell_0000000287   
       287   7  1.611674E-05 -1.302229E-05  4.094845E-07  2.218076E-05  3.321106E-08 -3.321106E-08 _shell_0000000287   
       287   8  1.621638E-05 -1.237584E-05  1.115446E-06  2.218076E-05  3.321106E-08  3.321106E-08 _shell_0000000287   
       288   1 -4.705287E-06 -2.668002E-05 -1.446885E-06  2.899217E-05  2.192414E-07 -2.192414E-07 _shell_0000000288   
       288   2 -1.944992E-06 -2.733774E-05 -3.086028E-06  2.899217E-05 -2.192414E-07 -2.192414E-07 _shell_0000000288   
       288   3 -5.363011E-06 -2.632683E-05 -1.159998E-06  2.899217E-05  2.192414E-07  2.192414E-07 _shell_0000000288   
       288   4 -1.287268E-06 -2.566911E-05  2.702381E-07  2.899217E-05 -2.192414E-07  2.192414E-07 _shell_0000000288   
       288   5 -4.705287E-06 -2.668002E-05 -1.446885E-06  2.899217E-05 -2.192414E-07  2.192414E-07 _shell_0000000288   
       288   6 -1.944992E-06 -2.733774E-05 -3.086028E-06  2.899217E-05  2.192414E-07  2.192414E-07 _shell_0000000288   
       288   7 -5.363011E-06 -2.632683E-05 -1.159998E-06  2.899217E-05 -2.192414E-07 -2.192414E-07 _shell_0000000288   
       288   8 -1.287268E-06 -2.566911E-05  2.702381E-07  2.899217E-05  2.192414E-07 -2.192414E-07 _shell_0000000288   
       289   1  1.385518E-05 -1.125370E-05 -9.238816E-06  4.026342E-05 -4.617551E-07 -4.617551E-07 _shell_0000000289   
       289   2  1.524045E-05  1.681201E-05 -3.713200E-06  4.026342E-05 -4.617551E-07  4.617551E-07 _shell_0000000289   
       289   3  2.090920E-05 -9.868431E-06 -7.143879E-07  4.026342E-05  4.617551E-07 -4.617551E-07 _shell_0000000289   
       289   4  1.952394E-05  1.542675E-05 -1.653343E-06  4.026342E-05  4.617551E-07  4.617551E-07 _shell_0000000289   
       289   5  1.385518E-05 -1.125370E-05 -9.238816E-06  4.026342E-05  4.617551E-07  4.617551E-07 _shell_0000000289   
       289   6  1.524045E-05  1.681201E-05 -3.713200E-06  4.026342E-05  4.617551E-07 -4.617551E-07 _shell_0000000289   
       289   7  2.090920E-05 -9.868431E-06 -7.143879E-07  4.026342E-05 -4.617551E-07  4.617551E-07 _shell_0000000289   
       289   8  1.952394E-05  1.542675E-05 -1.653343E-06  4.026342E-05 -4.617551E-07 -4.617551E-07 _shell_0000000289   
       290   1 -4.055005E-07 -3.568334E-05 -4.083045E-06  2.874929E-05 -4.214144E-07  4.214144E-07 _shell_0000000290   
       290   2  1.063202E-05 -3.441910E-05  4.731888E-06  2.874929E-05  4.214144E-07  4.214144E-07 _shell_0000000290   
       290   3  8.587426E-07 -3.125629E-05 -4.869035E-07  2.874929E-05 -4.214144E-07 -4.214144E-07 _shell_0000000290   
       290   4  9.367775E-06 -3.252054E-05  2.428228E-06  2.874929E-05  4.214144E-07 -4.214144E-07 _shell_0000000290   
       290   5 -4.055005E-07 -3.568334E-05 -4.083045E-06  2.874929E-05  4.214144E-07 -4.214144E-07 _shell_0000000290   
       290   6  1.063202E-05 -3.441910E-05  4.731888E-06  2.874929E-05 -4.214144E-07 -4.214144E-07 _shell_0000000290   
       290   7  8.587426E-07 -3.125629E-05 -4.869035E-07  2.874929E-05  4.214144E-07  4.214144E-07 _shell_0000000290   
       290   8  9.367775E-06 -3.252054E-05  2.428228E-06  2.874929E-05 -4.214144E-07  4.214144E-07 _shell_0000000290   
       291   1  2.256823E+01  1.554417E+01  1.387961E+00  2.271023E+01 -1.427211E-01  1.427211E-01 _shell_0000000291   
       291   2  2.259154E+01  1.511601E+01 -1.328444E+00  2.271023E+01  1.427211E-01  1.427211E-01 _shell_0000000291   
       291   3  2.214007E+01  2.447352E+01  6.480371E-01  2.271023E+01 -1.427211E-01 -1.427211E-01 _shell_0000000291   
       291   4  2.301971E+01  2.490168E+01 -7.027200E-02  2.271023E+01  1.427211E-01 -1.427211E-01 _shell_0000000291   
       291   5  2.256823E+01  1.554417E+01  1.387961E+00  2.271023E+01  1.427211E-01 -1.427211E-01 _shell_0000000291   
       291   6  2.259154E+01  1.511601E+01 -1.328444E+00  2.271023E+01 -1.427211E-01 -1.427211E-01 _shell_0000000291   
       291   7  2.214007E+01  2.447352E+01  6.480371E-01  2.271023E+01  1.427211E-01  1.427211E-01 _shell_0000000291   
       291   8  2.301971E+01  2.490168E+01 -7.027200E-02  2.271023E+01 -1.427211E-01  1.427211E-01 _shell_0000000291   