# vtk DataFile Version 3.0
Results from optimization
ASCII
DATASET UNSTRUCTURED_GRID

POINTS 3131 float
0.0 0.0 0.0 0.0 30.0 0.0 
100.0 0.0 0.0 100.0 30.0 0.0 
0.0 1.0 0.0 0.0 2.0 0.0 
0.0 3.0 0.0 0.0 4.0 0.0 
0.0 5.0 0.0 0.0 6.0 0.0 
0.0 7.0 0.0 0.0 8.0 0.0 
0.0 9.0 0.0 0.0 10.0 0.0 
0.0 11.0 0.0 0.0 12.0 0.0 
0.0 13.0 0.0 0.0 14.0 0.0 
0.0 15.0 0.0 0.0 16.0 0.0 
0.0 17.0 0.0 0.0 18.0 0.0 
0.0 19.0 0.0 0.0 20.0 0.0 
0.0 21.0 0.0 0.0 22.0 0.0 
0.0 23.0 0.0 0.0 24.0 0.0 
0.0 25.0 0.0 0.0 26.0 0.0 
0.0 27.0 0.0 0.0 28.0 0.0 
0.0 29.0 0.0 1.0 0.0 0.0 
2.0 0.0 0.0 3.0 0.0 0.0 
4.0 0.0 0.0 5.0 0.0 0.0 
6.0 0.0 0.0 7.0 0.0 0.0 
8.0 0.0 0.0 9.0 0.0 0.0 
10.0 0.0 0.0 11.0 0.0 0.0 
12.0 0.0 0.0 13.0 0.0 0.0 
14.0 0.0 0.0 15.0 0.0 0.0 
16.0 0.0 0.0 17.0 0.0 0.0 
18.0 0.0 0.0 19.0 0.0 0.0 
20.0 0.0 0.0 21.0 0.0 0.0 
22.0 0.0 0.0 23.0 0.0 0.0 
24.0 0.0 0.0 25.0 0.0 0.0 
26.0 0.0 0.0 27.0 0.0 0.0 
28.0 0.0 0.0 29.0 0.0 0.0 
30.0 0.0 0.0 31.0 0.0 0.0 
32.0 0.0 0.0 33.0 0.0 0.0 
34.0 0.0 0.0 35.0 0.0 0.0 
36.0 0.0 0.0 37.0 0.0 0.0 
38.0 0.0 0.0 39.0 0.0 0.0 
40.0 0.0 0.0 41.0 0.0 0.0 
42.0 0.0 0.0 43.0 0.0 0.0 
44.0 0.0 0.0 45.0 0.0 0.0 
46.0 0.0 0.0 47.0 0.0 0.0 
48.0 0.0 0.0 49.0 0.0 0.0 
50.0 0.0 0.0 51.0 0.0 0.0 
52.0 0.0 0.0 53.0 0.0 0.0 
54.0 0.0 0.0 55.0 0.0 0.0 
56.0 0.0 0.0 57.0 0.0 0.0 
58.0 0.0 0.0 59.0 0.0 0.0 
60.0 0.0 0.0 61.0 0.0 0.0 
62.0 0.0 0.0 63.0 0.0 0.0 
64.0 0.0 0.0 65.0 0.0 0.0 
66.0 0.0 0.0 67.0 0.0 0.0 
68.0 0.0 0.0 69.0 0.0 0.0 
70.0 0.0 0.0 71.0 0.0 0.0 
72.0 0.0 0.0 73.0 0.0 0.0 
74.0 0.0 0.0 75.0 0.0 0.0 
76.0 0.0 0.0 77.0 0.0 0.0 
78.0 0.0 0.0 79.0 0.0 0.0 
80.0 0.0 0.0 81.0 0.0 0.0 
82.0 0.0 0.0 83.0 0.0 0.0 
84.0 0.0 0.0 85.0 0.0 0.0 
86.0 0.0 0.0 87.0 0.0 0.0 
88.0 0.0 0.0 89.0 0.0 0.0 
90.0 0.0 0.0 91.0 0.0 0.0 
92.0 0.0 0.0 93.0 0.0 0.0 
94.0 0.0 0.0 95.0 0.0 0.0 
96.0 0.0 0.0 97.0 0.0 0.0 
98.0 0.0 0.0 99.0 0.0 0.0 
100.0 1.0 0.0 100.0 2.0 0.0 
100.0 3.0 0.0 100.0 4.0 0.0 
100.0 5.0 0.0 100.0 6.0 0.0 
100.0 7.0 0.0 100.0 8.0 0.0 
100.0 9.0 0.0 100.0 10.0 0.0 
100.0 11.0 0.0 100.0 12.0 0.0 
100.0 13.0 0.0 100.0 14.0 0.0 
100.0 15.0 0.0 100.0 16.0 0.0 
100.0 17.0 0.0 100.0 18.0 0.0 
100.0 19.0 0.0 100.0 20.0 0.0 
100.0 21.0 0.0 100.0 22.0 0.0 
100.0 23.0 0.0 100.0 24.0 0.0 
100.0 25.0 0.0 100.0 26.0 0.0 
100.0 27.0 0.0 100.0 28.0 0.0 
100.0 29.0 0.0 1.0 30.0 0.0 
2.0 30.0 0.0 3.0 30.0 0.0 
4.0 30.0 0.0 5.0 30.0 0.0 
6.0 30.0 0.0 7.0 30.0 0.0 
8.0 30.0 0.0 9.0 30.0 0.0 
10.0 30.0 0.0 11.0 30.0 0.0 
12.0 30.0 0.0 13.0 30.0 0.0 
14.0 30.0 0.0 15.0 30.0 0.0 
16.0 30.0 0.0 17.0 30.0 0.0 
18.0 30.0 0.0 19.0 30.0 0.0 
20.0 30.0 0.0 21.0 30.0 0.0 
22.0 30.0 0.0 23.0 30.0 0.0 
24.0 30.0 0.0 25.0 30.0 0.0 
26.0 30.0 0.0 27.0 30.0 0.0 
28.0 30.0 0.0 29.0 30.0 0.0 
30.0 30.0 0.0 31.0 30.0 0.0 
32.0 30.0 0.0 33.0 30.0 0.0 
34.0 30.0 0.0 35.0 30.0 0.0 
36.0 30.0 0.0 37.0 30.0 0.0 
38.0 30.0 0.0 39.0 30.0 0.0 
40.0 30.0 0.0 41.0 30.0 0.0 
42.0 30.0 0.0 43.0 30.0 0.0 
44.0 30.0 0.0 45.0 30.0 0.0 
46.0 30.0 0.0 47.0 30.0 0.0 
48.0 30.0 0.0 49.0 30.0 0.0 
50.0 30.0 0.0 51.0 30.0 0.0 
52.0 30.0 0.0 53.0 30.0 0.0 
54.0 30.0 0.0 55.0 30.0 0.0 
56.0 30.0 0.0 57.0 30.0 0.0 
58.0 30.0 0.0 59.0 30.0 0.0 
60.0 30.0 0.0 61.0 30.0 0.0 
62.0 30.0 0.0 63.0 30.0 0.0 
64.0 30.0 0.0 65.0 30.0 0.0 
66.0 30.0 0.0 67.0 30.0 0.0 
68.0 30.0 0.0 69.0 30.0 0.0 
70.0 30.0 0.0 71.0 30.0 0.0 
72.0 30.0 0.0 73.0 30.0 0.0 
74.0 30.0 0.0 75.0 30.0 0.0 
76.0 30.0 0.0 77.0 30.0 0.0 
78.0 30.0 0.0 79.0 30.0 0.0 
80.0 30.0 0.0 81.0 30.0 0.0 
82.0 30.0 0.0 83.0 30.0 0.0 
84.0 30.0 0.0 85.0 30.0 0.0 
86.0 30.0 0.0 87.0 30.0 0.0 
88.0 30.0 0.0 89.0 30.0 0.0 
90.0 30.0 0.0 91.0 30.0 0.0 
92.0 30.0 0.0 93.0 30.0 0.0 
94.0 30.0 0.0 95.0 30.0 0.0 
96.0 30.0 0.0 97.0 30.0 0.0 
98.0 30.0 0.0 99.0 30.0 0.0 
16.0 1.0 0.0 22.0 1.0 0.0 
28.0 1.0 0.0 34.0 1.0 0.0 
40.0 1.0 0.0 46.0 1.0 0.0 
52.0 1.0 0.0 58.0 1.0 0.0 
64.0 1.0 0.0 70.0 1.0 0.0 
76.0 1.0 0.0 82.0 1.0 0.0 
15.0 29.0 0.0 20.0 29.0 0.0 
25.0 29.0 0.0 30.0 29.0 0.0 
35.0 29.0 0.0 40.0 29.0 0.0 
45.0 29.0 0.0 50.0 29.0 0.0 
55.0 29.0 0.0 60.0 29.0 0.0 
65.0 29.0 0.0 70.0 29.0 0.0 
75.0 29.0 0.0 80.0 29.0 0.0 
99.0 13.0 0.0 85.0 29.0 0.0 
1.0 12.0 0.0 1.0 18.0 0.0 
99.0 18.0 0.0 88.0 1.0 0.0 
8.99999999994914 0.999999999973743 0.0 99.0 8.0 0.0 
8.0 29.0 0.0 89.0 29.0 0.0 
99.0 22.0 0.0 0.999995859328856 6.99995963616369 0.0 
1.0 23.0 0.0 93.0 1.0 0.0 
93.0 29.0 0.0 4.99897846844128 0.999401131561401 0.0 
99.0 4.0 0.0 99.0 25.0 0.0 
4.0 29.0 0.0 0.998018130894958 3.99456365118287 0.0 
96.0 29.0 0.0 1.0 27.0 0.0 
2.98755098591844 0.99220568858159 0.0 13.0 1.0 0.0 
97.0 1.0 0.0 99.0 27.0 0.0 
0.999999999429266 9.99999999116626 0.0 1.0 16.0 0.0 
20.0 1.0 0.0 26.0 1.0 0.0 
32.0 1.0 0.0 38.0 1.0 0.0 
44.0 1.0 0.0 50.0 1.0 0.0 
56.0 1.0 0.0 62.0 1.0 0.0 
68.0 1.0 0.0 74.0 1.0 0.0 
80.0 1.0 0.0 86.0 1.0 0.0 
99.0 15.0 0.0 10.0 29.0 0.0 
17.0 29.0 0.0 22.0 29.0 0.0 
27.0 29.0 0.0 32.0 29.0 0.0 
37.0 29.0 0.0 42.0 29.0 0.0 
47.0 29.0 0.0 52.0 29.0 0.0 
57.0 29.0 0.0 62.0 29.0 0.0 
67.0 29.0 0.0 72.0 29.0 0.0 
77.0 29.0 0.0 82.0 29.0 0.0 
0.982043965477184 1.98304218642421 0.0 1.0 29.0 0.0 
99.0 1.0 0.0 99.0 29.0 0.0 
0.983223912217958 0.987621281485569 0.0 0.999949380687591 5.99961944502072 0.0 
0.999999970537249 8.99999955168247 0.0 1.0 14.0 0.0 
1.0 20.0 0.0 1.0 22.0 0.0 
1.0 25.0 0.0 6.99998134409618 0.99999175922936 0.0 
10.9999999999491 0.999999999973743 0.0 15.0 1.0 0.0 
18.0 1.0 0.0 24.0 1.0 0.0 
30.0 1.0 0.0 36.0 1.0 0.0 
42.0 1.0 0.0 48.0 1.0 0.0 
54.0 1.0 0.0 60.0 1.0 0.0 
66.0 1.0 0.0 72.0 1.0 0.0 
78.0 1.0 0.0 84.0 1.0 0.0 
90.0 1.0 0.0 92.0 1.0 0.0 
95.0 1.0 0.0 99.0 2.0 0.0 
99.0 5.0 0.0 99.0 6.0 0.0 
99.0 9.0 0.0 99.0 10.0 0.0 
99.0 11.0 0.0 99.0 16.0 0.0 
99.0 19.0 0.0 99.0 20.0 0.0 
99.0 23.0 0.0 2.0 29.0 0.0 
5.0 29.0 0.0 6.0 29.0 0.0 
11.0 29.0 0.0 12.0 29.0 0.0 
13.0 29.0 0.0 18.0 29.0 0.0 
23.0 29.0 0.0 28.0 29.0 0.0 
33.0 29.0 0.0 38.0 29.0 0.0 
43.0 29.0 0.0 48.0 29.0 0.0 
53.0 29.0 0.0 58.0 29.0 0.0 
63.0 29.0 0.0 68.0 29.0 0.0 
73.0 29.0 0.0 78.0 29.0 0.0 
83.0 29.0 0.0 86.0 29.0 0.0 
87.0 29.0 0.0 90.0 29.0 0.0 
91.0 29.0 0.0 94.0 29.0 0.0 
97.0 29.0 0.0 16.0 2.0 0.0 
22.0 28.0 0.0 27.0 28.0 0.0 
52.0 28.0 0.0 57.0 28.0 0.0 
82.0 28.0 0.0 32.0 28.0 0.0 
37.0 28.0 0.0 62.0 28.0 0.0 
67.0 28.0 0.0 42.0 28.0 0.0 
72.0 28.0 0.0 98.0 15.0 0.0 
12.0 28.0 0.0 98.0 19.0 0.0 
89.0 28.0 0.0 98.0 10.0 0.0 
1.99999999531953 9.999999928767 0.0 93.0 2.0 0.0 
2.0 23.0 0.0 98.0 22.0 0.0 
93.0 28.0 0.0 1.99998433821395 6.9998796865685 0.0 
98.0 5.0 0.0 5.0 28.0 0.0 
85.0 28.0 0.0 96.0 28.0 0.0 
1.98413137230705 0.988341966066793 0.0 0.993390117123437 2.98985247870427 0.0 
0.999537928146093 4.99813727245904 0.0 0.999998442801018 7.99998651096591 0.0 
0.999999999636129 10.9999999944437 0.0 1.0 13.0 0.0 
1.0 15.0 0.0 1.0 17.0 0.0 
1.0 19.0 0.0 1.0 21.0 0.0 
1.0 24.0 0.0 1.0 26.0 0.0 
1.0 28.0 0.0 3.99605406296194 0.997383435909015 0.0 
5.99977465143194 0.999865295129002 0.0 7.9999965299808 0.999998450318377 0.0 
9.99999999988557 0.999999999940923 0.0 11.9999999999936 0.999999999996718 0.0 
14.0 1.0 0.0 17.0 1.0 0.0 
19.0 1.0 0.0 21.0 1.0 0.0 
23.0 1.0 0.0 25.0 1.0 0.0 
27.0 1.0 0.0 29.0 1.0 0.0 
31.0 1.0 0.0 33.0 1.0 0.0 
35.0 1.0 0.0 37.0 1.0 0.0 
39.0 1.0 0.0 41.0 1.0 0.0 
43.0 1.0 0.0 45.0 1.0 0.0 
47.0 1.0 0.0 49.0 1.0 0.0 
51.0 1.0 0.0 53.0 1.0 0.0 
55.0 1.0 0.0 57.0 1.0 0.0 
59.0 1.0 0.0 61.0 1.0 0.0 
63.0 1.0 0.0 65.0 1.0 0.0 
67.0 1.0 0.0 69.0 1.0 0.0 
71.0 1.0 0.0 73.0 1.0 0.0 
75.0 1.0 0.0 77.0 1.0 0.0 
79.0 1.0 0.0 81.0 1.0 0.0 
83.0 1.0 0.0 85.0 1.0 0.0 
87.0 1.0 0.0 89.0 1.0 0.0 
91.0 1.0 0.0 94.0 1.0 0.0 
96.0 1.0 0.0 98.0 1.0 0.0 
99.0 3.0 0.0 99.0 7.0 0.0 
99.0 12.0 0.0 99.0 14.0 0.0 
99.0 17.0 0.0 99.0 21.0 0.0 
99.0 24.0 0.0 99.0 26.0 0.0 
99.0 28.0 0.0 3.0 29.0 0.0 
7.0 29.0 0.0 9.0 29.0 0.0 
14.0 29.0 0.0 16.0 29.0 0.0 
19.0 29.0 0.0 21.0 29.0 0.0 
24.0 29.0 0.0 26.0 29.0 0.0 
29.0 29.0 0.0 31.0 29.0 0.0 
34.0 29.0 0.0 36.0 29.0 0.0 
39.0 29.0 0.0 41.0 29.0 0.0 
44.0 29.0 0.0 46.0 29.0 0.0 
49.0 29.0 0.0 51.0 29.0 0.0 
54.0 29.0 0.0 56.0 29.0 0.0 
59.0 29.0 0.0 61.0 29.0 0.0 
64.0 29.0 0.0 66.0 29.0 0.0 
69.0 29.0 0.0 71.0 29.0 0.0 
74.0 29.0 0.0 76.0 29.0 0.0 
79.0 29.0 0.0 81.0 29.0 0.0 
84.0 29.0 0.0 88.0 29.0 0.0 
92.0 29.0 0.0 95.0 29.0 0.0 
98.0 29.0 0.0 98.0 8.0 0.0 
10.0 28.0 0.0 86.0 28.0 0.0 
90.0 28.0 0.0 22.0 2.0 0.0 
28.0 2.0 0.0 34.0 2.0 0.0 
40.0 2.0 0.0 46.0 2.0 0.0 
52.0 2.0 0.0 58.0 2.0 0.0 
64.0 2.0 0.0 70.0 2.0 0.0 
76.0 2.0 0.0 82.0 2.0 0.0 
2.0 16.0 0.0 85.0 27.0 0.0 
88.0 2.0 0.0 11.9999999999928 1.99999999999631 0.0 
89.0 27.0 0.0 8.99999961400676 1.99999982348209 0.0 
5.9997075717904 1.99979502371096 0.0 1.99934767917968 4.99734291783241 0.0 
16.0 28.0 0.0 46.0 28.0 0.0 
76.0 28.0 0.0 2.0 27.0 0.0 
3.99556896721827 1.99618513026716 0.0 97.0 2.0 0.0 
2.0 20.0 0.0 94.0 28.0 0.0 
24.0 28.0 0.0 29.0 28.0 0.0 
34.0 28.0 0.0 39.0 28.0 0.0 
54.0 28.0 0.0 59.0 28.0 0.0 
64.0 28.0 0.0 69.0 28.0 0.0 
98.0 12.0 0.0 7.0 28.0 0.0 
98.0 24.0 0.0 97.0 28.0 0.0 
20.0 2.0 0.0 26.0 2.0 0.0 
32.0 2.0 0.0 38.0 2.0 0.0 
44.0 2.0 0.0 50.0 2.0 0.0 
56.0 2.0 0.0 62.0 2.0 0.0 
68.0 2.0 0.0 74.0 2.0 0.0 
80.0 2.0 0.0 86.0 2.0 0.0 
1.99999981323511 8.99999805583899 0.0 2.0 14.0 0.0 
91.0 2.0 0.0 98.0 20.0 0.0 
18.0 28.0 0.0 48.0 28.0 0.0 
78.0 28.0 0.0 83.0 28.0 0.0 
87.0 28.0 0.0 91.0 28.0 0.0 
98.0 7.0 0.0 14.0 28.0 0.0 
20.0 28.0 0.0 25.0 28.0 0.0 
30.0 28.0 0.0 35.0 28.0 0.0 
40.0 28.0 0.0 44.0 28.0 0.0 
50.0 28.0 0.0 55.0 28.0 0.0 
60.0 28.0 0.0 65.0 28.0 0.0 
70.0 28.0 0.0 74.0 28.0 0.0 
80.0 28.0 0.0 98.0 13.0 0.0 
1.99999999996321 11.9999999994391 0.0 2.0 18.0 0.0 
98.0 17.0 0.0 98.0 18.0 0.0 
8.0 28.0 0.0 98.0 3.0 0.0 
98.0 4.0 0.0 98.0 25.0 0.0 
3.0 28.0 0.0 4.0 28.0 0.0 
1.9971839117747 3.993137435461 0.0 1.98608618048036 1.98526975763388 0.0 
14.0 2.0 0.0 98.0 26.0 0.0 
98.0 27.0 0.0 1.99983949066551 5.99923056007149 0.0 
2.0 22.0 0.0 2.0 25.0 0.0 
7.99999502590895 1.99999772908988 0.0 10.9999999997687 1.99999999988056 0.0 
15.0 2.0 0.0 18.0 2.0 0.0 
[...]
CELL_DATA 3000

SCALARS element_states float
LOOKUP_TABLE default
1 1 1 1 1 1 1 1 1 1 1 1 1 0 0 0 0 1 1 1 1 1 1 1 1 1 1 1 1 1 
1 1 1 1 1 1 0 1 0 1 0 0 0 1 1 0 0 0 0 1 1 0 1 1 1 1 1 1 1 1 
1 1 1 1 1 1 0 0 0 0 0 0 0 0 0 0 0 0 1 1 1 1 1 1 1 1 1 1 1 1 
1 1 1 1 1 1 1 1 1 1 1 1 1 1 1 1 1 1 1 1 1 1 1 1 1 1 1 1 1 1 
1 1 1 1 1 1 1 1 1 1 1 1 1 1 1 1 1 1 1 1 1 1 1 1 1 1 1 1 1 1 
1 1 1 1 1 1 1 1 1 1 1 1 1 1 1 1 1 1 1 1 1 1 1 1 1 1 1 1 1 1 
1 1 1 1 1 1 1 1 1 1 1 0 0 0 0 0 0 0 0 0 0 0 0 0 0 0 0 0 0 0 
0 0 0 1 1 1 1 1 1 1 1 1 1 1 1 1 1 1 1 1 1 1 1 1 1 1 1 1 1 1 
1 1 1 1 1 1 1 1 1 1 1 1 1 1 1 1 1 1 1 1 1 1 1 1 1 1 1 1 1 1 
1 1 1 1 1 1 1 1 1 1 0 1 0 0 0 0 0 0 0 0 0 0 0 0 0 0 0 0 0 0 
0 0 0 0 0 0 0 0 0 0 0 1 1 1 1 1 1 1 1 1 1 1 1 0 0 0 0 0 1 1 
1 1 1 0 1 1 1 1 1 1 0 1 1 1 1 0 0 1 1 1 1 1 1 1 1 1 1 1 1 1 
1 1 1 1 0 0 0 0 0 0 0 0 0 1 1 1 1 1 1 1 1 1 1 1 1 1 1 1 1 1 
1 1 1 1 1 1 1 1 1 0 0 0 0 0 0 0 0 1 1 1 1 1 0 1 1 1 1 1 0 0 
1 1 0 1 1 1 0 0 1 0 0 0 1 0 0 0 0 0 0 0 0 0 0 0 1 1 1 1 1 1 
1 1 1 1 1 1 1 1 1 1 1 1 1 1 1 1 1 1 1 1 1 1 1 1 1 1 1 1 1 1 
1 1 1 1 1 1 1 1 1 1 1 1 1 1 1 1 1 1 1 1 1 1 1 1 1 1 1 1 1 1 
1 1 1 1 1 1 1 1 1 1 1 1 1 1 1 1 1 1 1 1 0 0 0 0 0 1 1 1 1 1 
1 1 1 1 1 1 1 1 1 1 0 0 0 0 0 0 0 0 1 1 0 0 0 0 0 1 1 0 0 0 
1 1 1 0 0 1 1 0 0 1 1 0 1 1 0 0 0 0 0 0 1 1 1 1 1 1 1 1 1 1 
1 1 1 0 0 0 0 0 1 1 0 0 1 1 1 1 0 1 1 1 1 1 1 1 1 1 1 1 1 1 
0 1 0 0 0 0 0 1 1 1 1 1 1 1 1 1 1 1 1 1 1 1 1 1 1 1 1 1 1 1 
1 1 1 1 1 1 0 0 1 1 1 1 1 1 1 1 1 1 1 1 0 0 1 0 1 1 1 1 0 0 
0 0 1 1 1 1 1 1 1 0 1 1 0 1 1 0 0 1 1 1 1 1 1 1 1 1 0 1 1 1 
1 1 1 0 0 0 0 0 0 0 0 1 1 1 1 1 1 1 1 1 1 1 1 1 1 1 1 1 1 1 
1 1 1 1 1 1 1 1 1 1 1 1 1 1 1 1 1 1 1 1 1 1 1 1 1 1 1 1 1 1 
1 1 1 1 1 1 1 1 1 1 1 1 1 1 1 1 1 1 1 1 1 1 1 1 1 1 1 1 0 0 
1 1 0 0 1 1 1 0 0 0 0 1 1 1 1 1 1 1 1 1 1 1 1 1 1 1 1 0 0 0 
1 1 1 0 1 1 1 1 1 1 1 1 1 1 1 1 1 1 1 1 0 0 0 0 0 1 1 1 1 1 
1 1 1 1 1 0 0 1 1 1 1 1 1 1 0 1 1 1 1 1 1 1 0 0 1 1 1 1 1 1 
0 0 0 0 1 1 1 0 0 0 0 1 0 1 0 1 1 1 1 1 1 0 0 1 1 1 1 1 0 0 
1 1 0 1 1 1 1 1 1 1 1 1 1 1 1 1 1 1 1 1 1 1 1 1 0 0 0 0 0 0 
0 0 1 1 0 0 0 1 1 1 1 1 1 1 1 1 1 1 1 1 0 0 1 1 1 1 1 1 0 1 
1 1 1 1 1 0 0 0 1 1 0 1 1 1 1 0 0 0 1 0 0 0 0 1 1 0 0 0 0 0 
1 1 1 1 0 0 0 0 1 1 1 1 0 0 1 1 0 1 1 1 1 1 1 1 0 1 1 1 1 1 
1 1 1 1 1 1 1 1 1 1 0 0 0 1 1 0 1 1 0 1 1 1 1 1 1 1 1 1 1 1 
1 1 1 1 1 1 0 1 1 1 1 1 1 1 1 1 1 1 1 1 1 1 1 1 1 1 1 0 0 0 
0 0 1 0 0 1 1 1 0 0 0 0 1 1 1 1 1 1 1 1 1 1 1 1 1 1 1 0 1 1 
1 1 1 1 1 1 1 1 1 0 0 1 1 1 1 0 0 0 1 1 1 1 1 0 1 1 1 1 0 0 
0 1 0 1 1 1 1 1 1 1 1 1 1 1 1 1 0 0 1 1 1 1 1 1 1 0 0 0 1 0 
1 1 1 1 1 1 1 1 1 1 1 1 1 1 1 1 1 1 0 1 0 0 0 0 0 0 1 1 1 1 
1 1 1 1 1 1 0 1 1 0 0 0 0 0 0 1 1 1 1 1 1 1 1 1 1 1 1 1 1 1 
1 1 1 1 1 1 1 1 1 0 1 1 1 1 1 1 0 1 1 1 1 1 0 0 1 1 0 0 0 0 
1 1 1 1 1 0 1 1 1 0 1 1 1 1 1 1 1 1 1 1 1 1 0 0 0 0 1 1 1 1 
1 1 0 0 0 0 1 0 1 0 0 1 1 1 1 1 1 1 1 1 1 1 1 1 1 1 1 1 1 1 
1 1 1 1 1 1 1 1 0 0 1 0 0 1 0 0 0 1 0 0 1 1 1 1 1 1 1 1 1 1 
0 0 1 1 0 0 1 1 1 1 1 1 1 1 1 1 1 1 1 1 1 1 0 1 0 0 1 1 1 0 
1 1 0 1 1 1 1 1 1 1 0 1 1 1 1 1 1 1 0 1 1 1 1 0 0 1 1 1 1 1 
1 1 1 1 1 1 1 1 1 1 0 0 1 1 1 1 1 0 1 1 0 0 0 1 1 1 1 1 0 0 
0 0 1 0 1 1 1 1 1 1 1 0 1 0 0 1 1 1 1 1 1 1 1 1 0 0 1 1 1 0 
1 1 1 1 1 1 0 0 1 1 1 1 1 1 1 1 1 1 1 1 1 0 0 1 1 1 1 0 1 1 
1 1 1 1 1 1 1 1 1 0 0 0 1 1 1 1 1 1 1 1 0 1 0 0 1 1 1 1 0 1 
1 1 1 1 1 1 1 1 1 1 1 1 1 1 1 0 1 1 0 1 1 0 0 1 1 1 1 1 1 1 
1 1 1 1 0 0 0 0 0 1 1 1 1 1 1 1 1 0 1 1 1 1 1 1 1 1 0 1 1 1 
0 0 1 1 0 0 0 0 1 1 0 0 1 1 1 1 1 1 0 1 1 1 1 1 1 1 1 1 1 1 
0 0 0 0 1 1 1 1 0 0 0 1 1 1 1 1 1 1 1 1 1 0 1 1 1 0 1 1 1 1 
0 1 1 0 1 1 0 1 0 0 1 1 1 1 1 1 1 1 1 0 0 1 1 1 1 0 0 0 1 1 
0 0 1 0 1 1 1 1 1 1 0 1 1 1 1 1 1 1 1 0 1 0 1 1 1 1 1 1 0 1 
0 1 1 0 0 1 1 1 1 0 0 1 1 1 1 1 1 1 1 1 1 1 1 0 0 0 0 1 0 1 
0 0 1 1 1 1 1 1 1 1 1 1 0 1 1 1 1 1 1 1 1 0 0 1 1 1 0 0 0 1 
1 1 1 1 1 1 1 1 1 1 1 1 1 1 1 1 0 1 0 0 1 0 1 1 1 1 1 0 1 1 
1 1 1 1 1 1 1 0 0 0 0 1 1 1 1 0 0 1 1 1 1 1 0 0 0 0 1 1 1 1 
0 0 0 0 1 1 1 1 1 0 1 1 1 0 0 0 0 0 0 1 1 1 0 1 1 1 1 1 1 0 
0 1 0 0 1 1 1 0 1 1 1 1 1 1 1 1 1 0 0 0 1 1 1 0 0 0 0 1 1 1 
1 0 0 0 1 1 1 1 1 1 1 1 0 0 0 1 1 1 1 1 1 0 1 1 1 1 0 0 1 1 
1 1 1 1 1 0 1 0 0 1 1 1 1 0 0 1 1 1 1 1 1 1 1 1 1 1 1 1 1 0 
0 0 0 0 1 0 1 1 1 1 1 1 1 1 1 1 1 1 1 1 1 1 1 0 0 0 1 1 0 0 
1 1 1 0 1 1 0 1 1 0 1 1 0 0 1 0 1 1 0 1 1 1 1 0 0 0 1 1 1 0 
0 1 1 1 1 1 0 1 1 1 1 1 0 1 1 1 1 1 0 0 1 1 1 1 1 0 1 1 0 1 
1 0 0 0 0 0 0 1 1 0 0 0 0 1 1 1 0 0 1 1 1 1 1 1 1 1 0 0 1 1 
1 1 1 1 1 1 0 1 1 1 1 1 1 0 1 0 0 1 0 0 1 1 0 1 1 0 0 0 1 1 
1 1 1 0 0 1 1 1 1 0 1 1 1 0 0 1 1 0 1 1 1 0 1 1 0 0 0 1 1 0 
1 1 1 1 1 1 0 1 0 0 1 1 1 1 1 1 1 1 1 1 0 0 1 1 0 0 1 1 1 1 
1 1 1 1 0 1 0 1 1 1 1 1 1 1 1 0 0 0 1 1 1 1 1 0 0 0 0 1 1 1 
1 0 0 1 1 1 0 1 1 1 1 1 1 0 0 0 0 1 0 1 0 0 1 1 0 0 0 0 1 1 
1 1 1 1 1 1 0 1 1 1 1 1 0 0 0 0 1 1 0 0 0 0 1 1 1 0 0 0 0 1 
1 1 1 1 1 1 1 1 1 0 0 0 1 0 0 0 1 1 0 1 1 0 0 1 1 1 0 1 1 0 
0 1 0 1 0 1 1 0 1 1 0 0 0 1 0 1 1 0 0 1 1 1 1 1 1 0 0 0 1 1 
1 1 0 1 1 1 0 1 1 0 0 0 1 1 0 0 0 1 1 0 1 0 0 0 0 1 1 1 1 0 
0 1 0 0 1 0 0 0 1 1 0 1 1 1 1 0 0 0 0 0 0 0 0 1 1 0 1 1 1 1 
0 0 1 1 0 0 0 0 0 0 1 0 1 0 0 1 0 1 1 1 1 0 0 0 0 1 1 1 0 0 
0 1 1 1 0 0 1 0 0 1 0 1 1 1 1 1 1 1 1 0 0 0 0 1 1 1 1 1 1 1 
1 1 1 1 1 0 0 0 0 0 0 0 1 0 0 1 0 0 0 1 0 0 0 0 1 1 0 1 1 0 
0 1 1 1 0 0 0 1 1 1 1 0 0 1 1 0 1 0 0 0 1 1 0 0 1 1 1 0 0 0 
1 1 1 1 0 0 1 1 1 0 0 0 0 0 0 0 1 1 1 1 1 0 0 0 1 1 1 1 0 0 
1 1 1 0 0 0 0 0 1 0 0 0 0 0 0 0 1 1 0 1 0 1 1 1 0 1 0 0 0 0 
0 0 0 1 0 0 0 0 1 0 0 1 1 0 0 0 1 0 1 1 1 1 0 1 0 0 0 0 1 0 
0 0 0 1 0 0 0 1 0 1 1 0 1 1 0 0 0 1 1 0 0 0 1 1 0 1 1 0 0 0 
0 0 1 1 0 0 0 1 1 1 0 0 0 0 0 0 1 1 1 1 1 1 0 0 1 0 0 0 1 1 
0 0 0 1 1 1 0 0 1 1 1 0 0 1 0 1 0 1 0 0 0 0 0 0 0 0 0 1 1 0 
0 1 1 0 1 1 0 0 1 1 1 0 0 0 0 0 1 1 0 0 0 0 1 1 0 1 1 1 1 1 
0 0 0 0 0 1 0 0 0 0 1 1 0 0 0 1 0 1 0 0 0 0 1 0 0 0 0 0 0 0 
0 1 0 1 0 1 1 0 0 0 1 1 0 0 0 0 0 0 0 0 1 0 0 0 0 1 0 1 1 1 
0 0 1 1 1 0 1 1 0 1 0 0 0 0 0 0 0 0 0 0 1 1 0 1 0 0 0 0 0 1 
0 0 0 0 0 0 1 0 0 0 0 0 1 1 0 0 0 0 0 0 0 0 0 0 0 0 0 1 1 0 
0 0 0 0 1 0 1 1 1 0 0 1 1 0 0 1 0 0 1 1 1 0 0 0 0 0 1 0 0 1 
1 1 1 1 0 0 0 0 0 1 1 1 1 1 0 0 0 0 1 0 0 0 1 1 1 0 0 1 0 0 
1 1 1 0 0 1 1 0 0 0 0 0 0 0 1 0 0 0 1 1 0 1 0 0 0 0 0 1 1 1 
0 1 0 1 1 1 0 0 1 1 0 0 0 1 0 0 0 0 1 1 1 0 0 0 0 1 0 0 1 1 
1 1 0 0 0 0 1 1 0 0 0 0 1 0 1 1 0 1 0 1 0 0 0 0 1 1 0 1 1 1 


SCALARS sensitivity_number float
LOOKUP_TABLE default
0.1311226008873223 0.12145684426795474 0.11132900514382645 0.12175106443706599 0.11173246319397859 0.07824413591181736 
0.06696351658109255 0.0436740001748793 0.04550887468742104 0.04883615065837615 0.05154643085625681 0.055015635279522565 
0.050942242012066444 1.7046181872727725e-08 1.3191815717918278e-08 2.16921958568342e-08 1.766451307939495e-08 0.07944121862086125 
0.06848489350119333 0.06713682053446411 0.06754253220467556 0.05673534616867647 0.05679741659538599 0.04817705789643097 
0.051192566597388085 0.04914839440834526 0.029189044211286246 0.055296730880106795 0.05231705479766865 0.05646608849300885 
0.05709961677623264 0.05548357791031344 0.05900248849008362 0.042352147180487514 0.03901896612991668 0.05799342061179 
0.01925938347881243 0.04757869700045303 1.0637500479365601e-07 0.04705703550675509 1.2353362273818247e-07 1.1592473890515402e-07 
1.0769909593621454e-07 0.05366527885626955 0.0513653696038763 1.0540890593474647e-07 1.1122064574670478e-07 1.079919184485759e-07 
1.2129794685824493e-07 0.05711871395312695 0.05921666540122512 1.1401523566647065e-07 0.05341484130071378 0.04784378400163587 
0.04415573864143717 0.04975569818928024 0.13473674331679045 0.13096609171592935 0.11085589876628525 0.12102526972366037 
0.10059545821605681 0.09044208766027281 0.08061750156655917 0.07170079584392582 0.06865898395914358 0.042728430622493006 
0.005042668413141404 0.03490824963623293 1.326028516013725e-07 1.0958573105115914e-07 1.0836907425000536e-07 1.0635453248008498e-07 
1.1191113241122066e-07 1.1013660364399227e-07 1.1454385555935157e-07 1.2093507393554973e-07 1.1770763241734536e-07 0.018662081773173952 
0.037965334948066025 0.06543811515809234 0.08091024881592455 0.1169808917731742 0.09663953514558242 0.16036781561394506 
0.24677529116746924 0.2277258002406817 0.1361083164280455 0.13724126319623925 0.13661181284573423 0.13789779308116193 
0.13860768911295362 0.14006033010956306 0.13932988164420518 0.14076797714786904 0.1413847239736158 0.14192743913769734 
0.14180195793988012 0.14160630015644007 0.14072539502053852 0.13915358732699076 0.13685104278215346 0.13386901711403706 
0.1265002614974652 0.13034751482574713 0.11886679303558527 0.12258537775202877 0.11557621803684932 0.11288109597857 
0.10951687217265382 0.110864496667961 0.10837881283398167 0.10874181333353096 0.10821934008434785 0.10808623697303314 
0.1073775534096328 0.10782382872361189 0.1060375346199038 0.106759306962244 0.1052812182206734 0.10450411942935645 
0.10250569950891202 0.103630622902858 0.09880867972067929 0.10094529757331552 0.09606204501530288 0.0928110603995349 
0.08580044251293391 0.08928930729903342 0.07994967833863639 0.0826291190281502 0.07777528962339605 0.07597430871782819 
0.07270159133390737 0.07434385317367487 0.06906712650220206 0.07094490224573581 0.06713502017085456 0.0652613078072065 
0.06222159628875755 0.06358081775650096 0.06075693460616214 0.061272412657974264 0.0606253158697109 0.060826315969053246 
0.06231727394315388 0.061364884838414534 0.0655690891251361 0.06374966392508084 0.06743373360163768 0.06879213691274738 
0.06837087419628442 0.06925979347051114 0.06291122387632321 0.06617048741321584 0.0596391576323877 0.05713516931242621 
0.05502076228218085 0.055776663811810956 0.05437018875482236 0.05471203388192987 0.05410454150176675 0.053811536504086974 
0.053234207417068115 0.053523196544276244 0.05265734778655035 0.052945851169360195 0.05236886625575409 0.05208035458900851 
0.051503305644730636 0.05179184576679337 0.05092626865802397 0.051214786323272546 0.050638370705648625 0.05036577707497246 
0.050209759197440064 0.05020448980551699 0.049993042596153565 0.050352390394367424 0.051776289923502666 0.06483612575467905 
0.05521335256055458 0.08230610172644459 0.2185225637734182 0.18843681763364695 0.22704911777307554 0.11546261807844924 
0.15195470115493434 0.0868893830247557 0.06562542907930298 0.028771423639114883 0.04604459313691909 0.009120342434767984 
9.962203730535755e-08 8.666085020647742e-08 6.392949500519696e-08 7.00352171057263e-08 5.9001904154657056e-08 5.528085452487479e-08 
5.1328175567501825e-08 4.280876150243461e-08 4.723304876123252e-08 3.822198157764378e-08 3.3544695875276605e-08 2.411208607732474e-08 
2.8799150777688524e-08 1.956680386145431e-08 1.1359644575200907e-08 1.5281078844578806e-08 7.886244973608024e-09 4.93771209607715e-09 
2.756908509171279e-09 1.254768602001669e-09 8.157231903552447e-10 0.25825082528696824 0.1700944538796539 0.20274927125061956 
0.15875790315782176 0.1504303570105475 0.13864600105631003 0.1441885115943408 0.13389260874324596 0.12973784008959865 
0.12606560492438357 0.12273716435913228 0.11964217258097712 0.1138949318381803 0.11670619904849808 0.11120514437944216 
0.10865105781175421 0.10625443214321821 0.10203729038791491 0.10403997713311883 0.10028398348435297 0.0988278882183731 
0.09772507065893632 0.09685764282287493 0.09704414321707168 0.0971966590532351 0.098069514568184 0.09939033071751625 
0.10288802483291103 0.10104887289451264 0.10470200521399604 0.10625130727676173 0.10728844627936071 0.1072465224520554 
0.10768056961524493 0.10593774129730324 0.10369137640225233 0.10059932949765213 0.092668104572449 0.09684622556013461 
0.08831721900119523 0.08403555438227271 0.08003522857977574 0.07353314911337175 0.07649083659078668 0.07125219110229793 
0.06970064853877275 0.06894236151593912 0.06980904727028334 0.06897351453730453 0.07133239852113801 0.07336591171545483 
0.07568598776315423 0.08022203040892777 0.07804536223115109 0.08206020767475601 0.08338819762420852 0.08400031410159835 
0.08168887516629181 0.0835466747740676 0.0780963506760972 0.07264827709048977 0.0656278969950576 0.05066333442752016 
0.05796093937528998 0.044456250575771496 0.03965335321402603 0.035399358054881105 0.022077541077278693 0.02961341332332884 
0.006637863173856549 8.902595102930264e-08 6.78774711111368e-08 7.024626066416024e-08 5.972082118706771e-08 7.910281314844755e-08 
7.827465480147771e-08 7.518311874083432e-08 7.48787055649073e-08 7.561654373627379e-08 7.23757749380327e-08 7.112544941086192e-08 
6.858700267196145e-08 5.936559425215802e-08 6.472455051377019e-08 5.362523613193769e-08 4.790886024638047e-08 3.734852296412595e-08 
4.247122780789277e-08 3.246767654830989e-08 2.7805850484665e-08 1.8967886268563907e-08 2.3300349178754623e-08 1.1121202337687814e-08 
1.4881805272217933e-08 7.762337409466715e-09 4.88469583062735e-09 1.251470715839476e-09 2.7400621146513138e-09 0.10832540356821946 
0.11087885553992234 0.09409398664722325 0.0988183780214615 0.10255348447876801 0.08957567847639777 0.06982819406289667 
0.0720370424556607 0.0758928104303635 0.07788739939358551 0.05232569124097726 0.02928179093442749 0.003969692855155918 
0.010736776289480839 6.388891681428089e-08 3.9694505413769953e-08 4.4010819146182344e-08 0.1347026740652172 0.13284246954341888 
0.13231880796434145 0.08333948334721149 0.1004024446134217 1.344236569036364e-08 0.1547677953302046 0.16714780114669683 
0.11104801806999735 0.10083773059633189 0.1360967049480579 0.1358189736004071 6.523610315396943e-09 0.1059018516052875 
0.10362524780435813 0.06824695557751816 0.06733054326636458 8.210808943580425e-08 7.428375435447338e-08 0.12121295053483516 
0.0810990548974112 0.09078384055002835 0.051235010714564086 0.044677712788008014 0.13339132028469208 0.13395650592147507 
0.13599065851208617 0.13365107706991064 0.1350465286996712 0.050222161790248444 0.0504481706003722 0.050333132066532664 
0.17289222626227793 0.11443873965807373 0.06719640487759132 0.05275325867043678 0.006355032354649342 0.025097070527543487 
8.369933120062788e-08 6.862355706629536e-08 5.220709717578126e-08 4.815478911279408e-08 3.526969228481765e-08 2.1762348630787982e-08 
1.7469174689813575e-08 0.2086743825192669 0.18678035276358895 0.14692030762481714 0.14027587157893714 0.11925924070885037 
0.12241725237751806 0.11632945466065883 0.11354695901731603 0.09523876868034953 0.09444628241077743 0.09588630941091741 
0.09726086060204948 0.10261214240706949 0.10293660369897957 0.09666973519912353 0.09331982356081094 0.07811186442703667 
0.07482558035256086 0.07229296119217361 0.07420406957184399 0.07902332491676586 0.0790150950518204 0.06520548389349175 
0.058517811682791736 0.041322528726491566 0.038176757176075174 0.01662573616445814 0.015034383890069336 6.836022716395027e-08 
5.3750921999652774e-08 4.844699007924355e-08 3.40828199825606e-08 2.9657614843833213e-08 6.470920068240061e-09 0.13157125979125836 
0.09639808789196554 0.09483855019280767 0.07037558013503814 0.07835857299114625 7.106168460495564e-08 0.10171435179255829 
0.09941796253026802 0.07107487235265307 0.04394326776920815 0.08177446451330385 0.02066378833620067 5.569408263113983e-08 
0.10932502829031866 0.11187366792097596 3.8625759971596266e-08 0.026397567142555985 0.05097333307906963 0.06977983362430452 
2.6231477223955288e-08 2.1116562518352968e-08 0.07212857329419907 5.920692637558313e-08 9.632713819625741e-09 1.3731088845794586e-08 
0.06564566639049478 0.008761565269930877 1.1022900092377616e-07 1.1802254443855906e-07 1.087375428041483e-07 1.0706917287536971e-07 
1.1037006862825022e-07 1.121068204382925e-07 1.2144570329571447e-07 1.1650590232105654e-07 0.0035924453770833317 0.024646371729522804 
0.08542878396493006 0.1242807789780309 0.10251931233678453 0.16283896304583026 0.13182365576497176 0.13453556233198408 
0.13511127274092843 0.13562855735835685 0.12883800483065108 0.12195788338214968 0.12556889172303584 0.11469500618522425 
0.1182481870652405 0.11152629261237752 0.10891148406499036 0.105616535616723 0.10694049696892019 0.10451206288086085 
0.10486059667155513 0.1043533735799825 0.10418748505200878 0.10336584422507088 0.10388071578674907 0.1018462373068737 
0.10265725395903004 0.10103478144178259 0.10026676211257025 0.0985117486871717 0.09948023932937643 0.0952228208553744 
0.09715178058284275 0.09265294221012572 0.08952169269048682 0.08259705789753992 0.08605968646697347 0.07688910713754644 
0.07946627007663942 0.07489840230627151 0.07334501862032991 0.07061231525737885 0.07198761172121465 0.06747655598950371 
0.06910973135131716 0.06577553431389281 0.06409552797730599 0.06126137865890547 0.06254834332511343 0.05979470375558489 
0.06033669992872748 0.059554641977075246 0.05950958407109293 0.06003234369738427 0.05963352857417304 0.062137070028525566 
0.060850658242952264 0.06365694799651092 0.06488015515103908 0.06455250680599985 0.06535100794580953 0.058540071648016265 
0.06225312249832508 0.054725352316516276 0.05234194940074408 0.05185309548641563 0.0517960392376231 0.05172646694078271 
0.051812502799248115 0.0516179255125841 0.051506624456672916 0.05128771350592977 0.05139602418147011 0.05107096501408726 
0.051179356627763246 0.05096252944939658 0.0508540957255286 0.05063722820976373 0.050745666657698196 0.0504197728102506 
0.05052876902598704 0.050311448952454325 0.05022245312861534 0.05127121135108251 0.05411781539547763 0.04980481579030364 
0.08297617379961746 0.035554463499989884 5.939999387733967e-08 3.076504644885562e-08 9.76121936237228e-09 2.1081079313856923e-09 
3.919382523566092e-09 0.12593388113800466 0.12997078275320217 0.10151197464755694 0.09958159113985715 0.09786315613965822 
0.09422395088421613 0.10037482655060591 0.10140286391488305 0.08565762239870962 0.06712545224809563 0.06760409300205555 
0.0687375261463957 0.07727945443902862 0.07533392664282533 0.04743984854231818 0.03010219649532054 7.701096300409505e-08 
7.985588504028952e-08 7.596214270050149e-08 6.423042941882818e-08 4.339371605091416e-08 2.5336570198008618e-08 3.905052069856885e-09 
0.11462392612790752 0.11774407917879993 5.472202261468489e-08 3.7614228280401286e-08 1.1061534864086025e-07 5.94709093063067e-08 
6.431896724486789e-08 0.0328149609935602 0.0328620581031148 4.1560915441246984e-08 4.5374676332983776e-08 4.1929627185975324e-08 
0.12253973749190164 0.16184943942743968 0.06831996374073603 0.011123308268814238 0.00433387297834451 0.125972074594983 
0.1314850128373127 6.695306232643114e-09 1.0017780093621071e-08 0.03276861516788058 0.05071612583477366 3.924348771963678e-08 
0.0980917149276864 0.06394874328518203 0.017322068715477815 6.541203086214558e-08 6.871271040546939e-08 4.99839211671889e-08 
4.560223070137374e-08 3.369232107780321e-08 0.05532725759917734 0.06252524367268068 0.10688406197136392 0.08824974518759016 
0.09032375287170262 0.09295068781368365 0.08318056375510859 0.07133399052394235 0.06699244889014909 0.0701939703920208 
0.05547850743422941 0.050357101600953136 0.03294982280177726 6.345351650983335e-08 1.1291120576637168e-07 1.1883089945287484e-07 
4.311000961247704e-08 4.687081293985323e-08 0.07543996354764189 0.07448509734204388 1.387005267126273e-08 1.7954750831178936e-08 
0.14589760797120266 0.15544055773449525 0.10123204079369419 0.12339450137018607 1.0063010261288072e-08 0.08182306472261125 
0.09133923447640331 0.057144858086551155 0.02979818967919532 0.12305534740385835 0.12278367166551636 0.12397938914360121 
0.12236726161412419 0.033047073307602925 0.03291929116376984 0.03366343876403802 0.03319751358999437 0.06912091939768303 
0.033392929771115694 0.03685507497438544 0.014646206005679608 5.437377857455287e-08 5.074100241890832e-08 2.650342968899171e-08 
2.2192554360877708e-08 0.13808107957859467 0.08997435126266695 0.0889499010987312 0.0885171198976297 0.08932170044019057 
0.0929788644050736 0.09321561562614693 0.0886039273331045 0.08605449571620054 0.07409575185471967 0.06512778407337834 
0.06622408100785389 0.06876516052183483 0.0696616424417404 0.06403330809889886 0.059484180258247144 0.051434873205151284 
0.05084021141452385 0.03488782054611314 0.12075387672127248 0.11852429946297616 0.09126107674628657 0.09275377072984828 
0.08803065062144441 0.08793548634922237 0.06401590278228633 0.06322382164347641 0.06794986112632134 0.06744533878308927 