# vtk DataFile Version 3.0
Results from optimization
ASCII
DATASET UNSTRUCTURED_GRID

POINTS 3131 float
0.0 0.0 0.0 0.0 30.0 0.0 
100.0 0.0 0.0 100.0 30.0 0.0 
0.0 1.0 0.0 0.0 2.0 0.0 
0.0 3.0 0.0 0.0 4.0 0.0 
0.0 5.0 0.0 0.0 6.0 0.0 
0.0 7.0 0.0 0.0 8.0 0.0 
0.0 9.0 0.0 0.0 10.0 0.0 
0.0 11.0 0.0 0.0 12.0 0.0 
0.0 13.0 0.0 0.0 14.0 0.0 
0.0 15.0 0.0 0.0 16.0 0.0 
0.0 17.0 0.0 0.0 18.0 0.0 
0.0 19.0 0.0 0.0 20.0 0.0 
0.0 21.0 0.0 0.0 22.0 0.0 
0.0 23.0 0.0 0.0 24.0 0.0 
0.0 25.0 0.0 0.0 26.0 0.0 
0.0 27.0 0.0 0.0 28.0 0.0 
0.0 29.0 0.0 1.0 0.0 0.0 
2.0 0.0 0.0 3.0 0.0 0.0 
4.0 0.0 0.0 5.0 0.0 0.0 
6.0 0.0 0.0 7.0 0.0 0.0 
8.0 0.0 0.0 9.0 0.0 0.0 
10.0 0.0 0.0 11.0 0.0 0.0 
12.0 0.0 0.0 13.0 0.0 0.0 
14.0 0.0 0.0 15.0 0.0 0.0 
16.0 0.0 0.0 17.0 0.0 0.0 
18.0 0.0 0.0 19.0 0.0 0.0 
20.0 0.0 0.0 21.0 0.0 0.0 
22.0 0.0 0.0 23.0 0.0 0.0 
24.0 0.0 0.0 25.0 0.0 0.0 
26.0 0.0 0.0 27.0 0.0 0.0 
28.0 0.0 0.0 29.0 0.0 0.0 
30.0 0.0 0.0 31.0 0.0 0.0 
32.0 0.0 0.0 33.0 0.0 0.0 
34.0 0.0 0.0 35.0 0.0 0.0 
36.0 0.0 0.0 37.0 0.0 0.0 
38.0 0.0 0.0 39.0 0.0 0.0 
40.0 0.0 0.0 41.0 0.0 0.0 
42.0 0.0 0.0 43.0 0.0 0.0 
44.0 0.0 0.0 45.0 0.0 0.0 
46.0 0.0 0.0 47.0 0.0 0.0 
48.0 0.0 0.0 49.0 0.0 0.0 
50.0 0.0 0.0 51.0 0.0 0.0 
52.0 0.0 0.0 53.0 0.0 0.0 
54.0 0.0 0.0 55.0 0.0 0.0 
56.0 0.0 0.0 57.0 0.0 0.0 
58.0 0.0 0.0 59.0 0.0 0.0 
60.0 0.0 0.0 61.0 0.0 0.0 
62.0 0.0 0.0 63.0 0.0 0.0 
64.0 0.0 0.0 65.0 0.0 0.0 
66.0 0.0 0.0 67.0 0.0 0.0 
68.0 0.0 0.0 69.0 0.0 0.0 
70.0 0.0 0.0 71.0 0.0 0.0 
72.0 0.0 0.0 73.0 0.0 0.0 
74.0 0.0 0.0 75.0 0.0 0.0 
76.0 0.0 0.0 77.0 0.0 0.0 
78.0 0.0 0.0 79.0 0.0 0.0 
80.0 0.0 0.0 81.0 0.0 0.0 
82.0 0.0 0.0 83.0 0.0 0.0 
84.0 0.0 0.0 85.0 0.0 0.0 
86.0 0.0 0.0 87.0 0.0 0.0 
88.0 0.0 0.0 89.0 0.0 0.0 
90.0 0.0 0.0 91.0 0.0 0.0 
92.0 0.0 0.0 93.0 0.0 0.0 
94.0 0.0 0.0 95.0 0.0 0.0 
96.0 0.0 0.0 97.0 0.0 0.0 
98.0 0.0 0.0 99.0 0.0 0.0 
100.0 1.0 0.0 100.0 2.0 0.0 
100.0 3.0 0.0 100.0 4.0 0.0 
100.0 5.0 0.0 100.0 6.0 0.0 
100.0 7.0 0.0 100.0 8.0 0.0 
100.0 9.0 0.0 100.0 10.0 0.0 
100.0 11.0 0.0 100.0 12.0 0.0 
100.0 13.0 0.0 100.0 14.0 0.0 
100.0 15.0 0.0 100.0 16.0 0.0 
100.0 17.0 0.0 100.0 18.0 0.0 
100.0 19.0 0.0 100.0 20.0 0.0 
100.0 21.0 0.0 100.0 22.0 0.0 
100.0 23.0 0.0 100.0 24.0 0.0 
100.0 25.0 0.0 100.0 26.0 0.0 
100.0 27.0 0.0 100.0 28.0 0.0 
100.0 29.0 0.0 1.0 30.0 0.0 
2.0 30.0 0.0 3.0 30.0 0.0 
4.0 30.0 0.0 5.0 30.0 0.0 
6.0 30.0 0.0 7.0 30.0 0.0 
8.0 30.0 0.0 9.0 30.0 0.0 
10.0 30.0 0.0 11.0 30.0 0.0 
12.0 30.0 0.0 13.0 30.0 0.0 
14.0 30.0 0.0 15.0 30.0 0.0 
16.0 30.0 0.0 17.0 30.0 0.0 
18.0 30.0 0.0 19.0 30.0 0.0 
20.0 30.0 0.0 21.0 30.0 0.0 
22.0 30.0 0.0 23.0 30.0 0.0 
24.0 30.0 0.0 25.0 30.0 0.0 
26.0 30.0 0.0 27.0 30.0 0.0 
28.0 30.0 0.0 29.0 30.0 0.0 
30.0 30.0 0.0 31.0 30.0 0.0 
32.0 30.0 0.0 33.0 30.0 0.0 
34.0 30.0 0.0 35.0 30.0 0.0 
36.0 30.0 0.0 37.0 30.0 0.0 
38.0 30.0 0.0 39.0 30.0 0.0 
40.0 30.0 0.0 41.0 30.0 0.0 
42.0 30.0 0.0 43.0 30.0 0.0 
44.0 30.0 0.0 45.0 30.0 0.0 
46.0 30.0 0.0 47.0 30.0 0.0 
48.0 30.0 0.0 49.0 30.0 0.0 
50.0 30.0 0.0 51.0 30.0 0.0 
52.0 30.0 0.0 53.0 30.0 0.0 
54.0 30.0 0.0 55.0 30.0 0.0 
56.0 30.0 0.0 57.0 30.0 0.0 
58.0 30.0 0.0 59.0 30.0 0.0 
60.0 30.0 0.0 61.0 30.0 0.0 
62.0 30.0 0.0 63.0 30.0 0.0 
64.0 30.0 0.0 65.0 30.0 0.0 
66.0 30.0 0.0 67.0 30.0 0.0 
68.0 30.0 0.0 69.0 30.0 0.0 
70.0 30.0 0.0 71.0 30.0 0.0 
72.0 30.0 0.0 73.0 30.0 0.0 
74.0 30.0 0.0 75.0 30.0 0.0 
76.0 30.0 0.0 77.0 30.0 0.0 
78.0 30.0 0.0 79.0 30.0 0.0 
80.0 30.0 0.0 81.0 30.0 0.0 
82.0 30.0 0.0 83.0 30.0 0.0 
84.0 30.0 0.0 85.0 30.0 0.0 
86.0 30.0 0.0 87.0 30.0 0.0 
88.0 30.0 0.0 89.0 30.0 0.0 
90.0 30.0 0.0 91.0 30.0 0.0 
92.0 30.0 0.0 93.0 30.0 0.0 
94.0 30.0 0.0 95.0 30.0 0.0 
96.0 30.0 0.0 97.0 30.0 0.0 
98.0 30.0 0.0 99.0 30.0 0.0 
16.0 1.0 0.0 22.0 1.0 0.0 
28.0 1.0 0.0 34.0 1.0 0.0 
40.0 1.0 0.0 46.0 1.0 0.0 
52.0 1.0 0.0 58.0 1.0 0.0 
64.0 1.0 0.0 70.0 1.0 0.0 
76.0 1.0 0.0 82.0 1.0 0.0 
15.0 29.0 0.0 20.0 29.0 0.0 
25.0 29.0 0.0 30.0 29.0 0.0 
35.0 29.0 0.0 40.0 29.0 0.0 
45.0 29.0 0.0 50.0 29.0 0.0 
55.0 29.0 0.0 60.0 29.0 0.0 
65.0 29.0 0.0 70.0 29.0 0.0 
75.0 29.0 0.0 80.0 29.0 0.0 
99.0 13.0 0.0 85.0 29.0 0.0 
1.0 12.0 0.0 1.0 18.0 0.0 
99.0 18.0 0.0 88.0 1.0 0.0 
8.99999999994914 0.999999999973743 0.0 99.0 8.0 0.0 
8.0 29.0 0.0 89.0 29.0 0.0 
99.0 22.0 0.0 0.999995859328856 6.99995963616369 0.0 
1.0 23.0 0.0 93.0 1.0 0.0 
93.0 29.0 0.0 4.99897846844128 0.999401131561401 0.0 
99.0 4.0 0.0 99.0 25.0 0.0 
4.0 29.0 0.0 0.998018130894958 3.99456365118287 0.0 
96.0 29.0 0.0 1.0 27.0 0.0 
2.98755098591844 0.99220568858159 0.0 13.0 1.0 0.0 
97.0 1.0 0.0 99.0 27.0 0.0 
0.999999999429266 9.99999999116626 0.0 1.0 16.0 0.0 
20.0 1.0 0.0 26.0 1.0 0.0 
32.0 1.0 0.0 38.0 1.0 0.0 
44.0 1.0 0.0 50.0 1.0 0.0 
56.0 1.0 0.0 62.0 1.0 0.0 
68.0 1.0 0.0 74.0 1.0 0.0 
80.0 1.0 0.0 86.0 1.0 0.0 
99.0 15.0 0.0 10.0 29.0 0.0 
17.0 29.0 0.0 22.0 29.0 0.0 
27.0 29.0 0.0 32.0 29.0 0.0 
37.0 29.0 0.0 42.0 29.0 0.0 
47.0 29.0 0.0 52.0 29.0 0.0 
57.0 29.0 0.0 62.0 29.0 0.0 
67.0 29.0 0.0 72.0 29.0 0.0 
77.0 29.0 0.0 82.0 29.0 0.0 
0.982043965477184 1.98304218642421 0.0 1.0 29.0 0.0 
99.0 1.0 0.0 99.0 29.0 0.0 
0.983223912217958 0.987621281485569 0.0 0.999949380687591 5.99961944502072 0.0 
0.999999970537249 8.99999955168247 0.0 1.0 14.0 0.0 
1.0 20.0 0.0 1.0 22.0 0.0 
1.0 25.0 0.0 6.99998134409618 0.99999175922936 0.0 
10.9999999999491 0.999999999973743 0.0 15.0 1.0 0.0 
18.0 1.0 0.0 24.0 1.0 0.0 
30.0 1.0 0.0 36.0 1.0 0.0 
42.0 1.0 0.0 48.0 1.0 0.0 
54.0 1.0 0.0 60.0 1.0 0.0 
66.0 1.0 0.0 72.0 1.0 0.0 
78.0 1.0 0.0 84.0 1.0 0.0 
90.0 1.0 0.0 92.0 1.0 0.0 
95.0 1.0 0.0 99.0 2.0 0.0 
99.0 5.0 0.0 99.0 6.0 0.0 
99.0 9.0 0.0 99.0 10.0 0.0 
99.0 11.0 0.0 99.0 16.0 0.0 
99.0 19.0 0.0 99.0 20.0 0.0 
99.0 23.0 0.0 2.0 29.0 0.0 
5.0 29.0 0.0 6.0 29.0 0.0 
11.0 29.0 0.0 12.0 29.0 0.0 
13.0 29.0 0.0 18.0 29.0 0.0 
23.0 29.0 0.0 28.0 29.0 0.0 
33.0 29.0 0.0 38.0 29.0 0.0 
43.0 29.0 0.0 48.0 29.0 0.0 
53.0 29.0 0.0 58.0 29.0 0.0 
63.0 29.0 0.0 68.0 29.0 0.0 
73.0 29.0 0.0 78.0 29.0 0.0 
83.0 29.0 0.0 86.0 29.0 0.0 
87.0 29.0 0.0 90.0 29.0 0.0 
91.0 29.0 0.0 94.0 29.0 0.0 
97.0 29.0 0.0 16.0 2.0 0.0 
22.0 28.0 0.0 27.0 28.0 0.0 
52.0 28.0 0.0 57.0 28.0 0.0 
82.0 28.0 0.0 32.0 28.0 0.0 
37.0 28.0 0.0 62.0 28.0 0.0 
67.0 28.0 0.0 42.0 28.0 0.0 
72.0 28.0 0.0 98.0 15.0 0.0 
12.0 28.0 0.0 98.0 19.0 0.0 
89.0 28.0 0.0 98.0 10.0 0.0 
1.99999999531953 9.999999928767 0.0 93.0 2.0 0.0 
2.0 23.0 0.0 98.0 22.0 0.0 
93.0 28.0 0.0 1.99998433821395 6.9998796865685 0.0 
98.0 5.0 0.0 5.0 28.0 0.0 
85.0 28.0 0.0 96.0 28.0 0.0 
1.98413137230705 0.988341966066793 0.0 0.993390117123437 2.98985247870427 0.0 
0.999537928146093 4.99813727245904 0.0 0.999998442801018 7.99998651096591 0.0 
0.999999999636129 10.9999999944437 0.0 1.0 13.0 0.0 
1.0 15.0 0.0 1.0 17.0 0.0 
1.0 19.0 0.0 1.0 21.0 0.0 
1.0 24.0 0.0 1.0 26.0 0.0 
1.0 28.0 0.0 3.99605406296194 0.997383435909015 0.0 
5.99977465143194 0.999865295129002 0.0 7.9999965299808 0.999998450318377 0.0 
9.99999999988557 0.999999999940923 0.0 11.9999999999936 0.999999999996718 0.0 
14.0 1.0 0.0 17.0 1.0 0.0 
19.0 1.0 0.0 21.0 1.0 0.0 
23.0 1.0 0.0 25.0 1.0 0.0 
27.0 1.0 0.0 29.0 1.0 0.0 
31.0 1.0 0.0 33.0 1.0 0.0 
35.0 1.0 0.0 37.0 1.0 0.0 
39.0 1.0 0.0 41.0 1.0 0.0 
43.0 1.0 0.0 45.0 1.0 0.0 
47.0 1.0 0.0 49.0 1.0 0.0 
51.0 1.0 0.0 53.0 1.0 0.0 
55.0 1.0 0.0 57.0 1.0 0.0 
59.0 1.0 0.0 61.0 1.0 0.0 
63.0 1.0 0.0 65.0 1.0 0.0 
67.0 1.0 0.0 69.0 1.0 0.0 
71.0 1.0 0.0 73.0 1.0 0.0 
75.0 1.0 0.0 77.0 1.0 0.0 
79.0 1.0 0.0 81.0 1.0 0.0 
83.0 1.0 0.0 85.0 1.0 0.0 
87.0 1.0 0.0 89.0 1.0 0.0 
91.0 1.0 0.0 94.0 1.0 0.0 
96.0 1.0 0.0 98.0 1.0 0.0 
99.0 3.0 0.0 99.0 7.0 0.0 
99.0 12.0 0.0 99.0 14.0 0.0 
99.0 17.0 0.0 99.0 21.0 0.0 
99.0 24.0 0.0 99.0 26.0 0.0 
99.0 28.0 0.0 3.0 29.0 0.0 
7.0 29.0 0.0 9.0 29.0 0.0 
14.0 29.0 0.0 16.0 29.0 0.0 
19.0 29.0 0.0 21.0 29.0 0.0 
24.0 29.0 0.0 26.0 29.0 0.0 
29.0 29.0 0.0 31.0 29.0 0.0 
34.0 29.0 0.0 36.0 29.0 0.0 
39.0 29.0 0.0 41.0 29.0 0.0 
44.0 29.0 0.0 46.0 29.0 0.0 
49.0 29.0 0.0 51.0 29.0 0.0 
54.0 29.0 0.0 56.0 29.0 0.0 
59.0 29.0 0.0 61.0 29.0 0.0 
64.0 29.0 0.0 66.0 29.0 0.0 
69.0 29.0 0.0 71.0 29.0 0.0 
74.0 29.0 0.0 76.0 29.0 0.0 
79.0 29.0 0.0 81.0 29.0 0.0 
84.0 29.0 0.0 88.0 29.0 0.0 
92.0 29.0 0.0 95.0 29.0 0.0 
98.0 29.0 0.0 98.0 8.0 0.0 
10.0 28.0 0.0 86.0 28.0 0.0 
90.0 28.0 0.0 22.0 2.0 0.0 
28.0 2.0 0.0 34.0 2.0 0.0 
40.0 2.0 0.0 46.0 2.0 0.0 
52.0 2.0 0.0 58.0 2.0 0.0 
64.0 2.0 0.0 70.0 2.0 0.0 
76.0 2.0 0.0 82.0 2.0 0.0 
2.0 16.0 0.0 85.0 27.0 0.0 
88.0 2.0 0.0 11.9999999999928 1.99999999999631 0.0 
89.0 27.0 0.0 8.99999961400676 1.99999982348209 0.0 
5.9997075717904 1.99979502371096 0.0 1.99934767917968 4.99734291783241 0.0 
16.0 28.0 0.0 46.0 28.0 0.0 
76.0 28.0 0.0 2.0 27.0 0.0 
3.99556896721827 1.99618513026716 0.0 97.0 2.0 0.0 
2.0 20.0 0.0 94.0 28.0 0.0 
24.0 28.0 0.0 29.0 28.0 0.0 
34.0 28.0 0.0 39.0 28.0 0.0 
54.0 28.0 0.0 59.0 28.0 0.0 
64.0 28.0 0.0 69.0 28.0 0.0 
98.0 12.0 0.0 7.0 28.0 0.0 
98.0 24.0 0.0 97.0 28.0 0.0 
20.0 2.0 0.0 26.0 2.0 0.0 
32.0 2.0 0.0 38.0 2.0 0.0 
44.0 2.0 0.0 50.0 2.0 0.0 
56.0 2.0 0.0 62.0 2.0 0.0 
68.0 2.0 0.0 74.0 2.0 0.0 
80.0 2.0 0.0 86.0 2.0 0.0 
1.99999981323511 8.99999805583899 0.0 2.0 14.0 0.0 
91.0 2.0 0.0 98.0 20.0 0.0 
18.0 28.0 0.0 48.0 28.0 0.0 
78.0 28.0 0.0 83.0 28.0 0.0 
87.0 28.0 0.0 91.0 28.0 0.0 
98.0 7.0 0.0 14.0 28.0 0.0 
20.0 28.0 0.0 25.0 28.0 0.0 
30.0 28.0 0.0 35.0 28.0 0.0 
40.0 28.0 0.0 44.0 28.0 0.0 
50.0 28.0 0.0 55.0 28.0 0.0 
60.0 28.0 0.0 65.0 28.0 0.0 
70.0 28.0 0.0 74.0 28.0 0.0 
80.0 28.0 0.0 98.0 13.0 0.0 
1.99999999996321 11.9999999994391 0.0 2.0 18.0 0.0 
98.0 17.0 0.0 98.0 18.0 0.0 
8.0 28.0 0.0 98.0 3.0 0.0 
98.0 4.0 0.0 98.0 25.0 0.0 
3.0 28.0 0.0 4.0 28.0 0.0 
1.9971839117747 3.993137435461 0.0 1.98608618048036 1.98526975763388 0.0 
14.0 2.0 0.0 98.0 26.0 0.0 
98.0 27.0 0.0 1.99983949066551 5.99923056007149 0.0 
2.0 22.0 0.0 2.0 25.0 0.0 
7.99999502590895 1.99999772908988 0.0 10.9999999997687 1.99999999988056 0.0 
15.0 2.0 0.0 18.0 2.0 0.0 
[...]
CELL_DATA 3000

SCALARS element_states float
LOOKUP_TABLE default
1 1 1 1 1 1 1 1 1 1 1 1 1 0 0 0 0 1 1 1 1 1 1 0 0 0 0 0 1 1 
1 1 1 1 0 1 0 1 0 1 0 0 0 1 1 0 0 0 0 1 1 0 1 0 0 0 1 1 1 1 
1 1 1 1 1 0 0 0 0 0 0 0 0 0 0 0 0 0 0 1 1 1 1 1 1 1 1 1 1 1 
1 1 1 1 1 1 1 1 1 1 1 1 1 1 1 1 1 1 1 1 1 1 1 1 1 1 1 1 1 1 
1 1 1 1 1 1 1 1 1 1 1 1 1 1 1 1 1 1 1 1 1 1 1 1 1 1 1 1 1 1 
1 1 1 1 1 1 1 1 1 1 1 1 1 1 1 1 1 1 1 1 1 1 1 1 1 1 1 1 1 1 
1 1 1 1 1 1 1 1 1 0 0 0 0 0 0 0 0 0 0 0 0 0 0 0 0 0 0 0 0 0 
0 0 0 1 1 1 1 1 1 1 1 1 1 1 1 1 1 1 1 1 1 1 1 1 1 1 1 1 1 1 
1 1 1 1 1 1 1 1 1 1 1 1 1 1 1 1 1 1 1 1 1 1 1 1 1 1 1 1 1 1 
1 1 1 1 1 1 1 1 1 0 0 0 0 0 0 0 0 0 0 0 0 0 0 0 0 0 0 0 0 0 
0 0 0 0 0 0 0 0 0 0 0 1 1 1 1 1 1 1 1 1 1 1 0 0 0 0 0 0 1 1 
1 1 1 0 1 1 1 1 1 1 0 1 1 1 1 0 0 1 1 1 0 0 1 1 1 1 1 1 1 1 
1 1 1 1 0 0 0 0 0 0 0 0 0 1 1 1 1 1 1 1 1 1 1 1 1 1 1 1 1 1 
1 1 1 1 1 1 1 1 1 0 0 0 0 0 0 0 0 1 1 1 1 1 0 1 1 1 1 1 0 0 
1 1 0 0 1 1 0 0 1 0 0 0 1 0 0 0 0 0 0 0 0 0 0 0 1 1 1 1 1 1 
1 1 1 1 1 1 1 1 1 1 1 1 1 1 1 1 1 1 1 1 1 1 1 1 1 1 1 1 1 1 
1 1 1 1 1 1 1 1 1 1 1 1 1 1 1 1 1 1 1 1 1 1 1 1 1 1 1 1 1 1 
1 1 1 1 1 1 1 1 1 1 1 1 1 1 1 1 1 1 1 0 0 0 0 0 0 1 1 1 1 1 
1 1 1 1 1 1 1 1 1 1 0 0 0 0 0 0 0 0 1 1 0 0 0 0 0 1 1 0 0 0 
1 1 1 0 0 1 1 0 0 1 0 0 1 1 0 0 0 0 0 0 1 1 1 1 1 1 1 1 1 1 
1 1 0 0 0 0 0 0 1 1 0 0 1 1 1 1 0 1 1 0 0 1 1 1 1 1 1 1 1 1 
0 0 0 0 0 0 0 1 1 1 1 1 1 1 1 1 1 1 1 1 1 1 1 1 1 1 1 1 1 1 
1 1 1 1 1 1 0 0 1 1 1 1 1 1 1 1 1 1 1 1 0 0 0 0 1 1 1 1 0 0 
0 0 1 1 1 1 1 1 1 0 1 1 0 1 1 0 0 1 1 1 1 1 1 1 1 1 0 0 1 1 
1 1 1 0 0 0 0 0 0 0 0 1 1 1 1 1 1 1 1 1 1 1 1 1 1 1 1 1 1 1 
1 1 1 1 1 1 1 1 1 1 1 1 1 1 1 1 1 1 1 1 1 1 1 1 1 1 1 1 1 1 
1 1 1 1 1 1 1 1 1 1 1 1 1 1 1 1 1 1 1 1 1 1 1 1 1 1 1 1 0 0 
1 1 0 0 0 1 0 0 0 0 0 1 1 1 1 1 1 1 1 1 1 1 1 1 1 1 1 0 0 0 
1 1 1 1 1 1 1 1 1 1 1 1 1 1 1 1 1 1 0 0 0 0 0 0 0 1 1 1 1 1 
1 1 1 1 0 0 0 0 1 1 1 1 1 1 0 1 1 1 1 1 1 0 0 0 1 1 1 1 1 1 
0 0 0 0 1 1 1 0 0 0 0 1 0 1 0 1 1 1 1 1 1 0 0 1 1 1 1 1 0 0 
1 1 0 1 1 0 1 1 1 1 1 1 1 1 1 1 1 1 1 1 1 0 0 0 0 0 0 0 0 0 
0 0 0 1 0 0 0 1 1 1 1 1 1 1 1 1 1 1 1 1 0 0 1 1 1 1 1 1 0 1 
1 1 1 1 1 0 0 0 1 1 0 0 1 1 1 0 0 0 1 0 0 0 0 1 1 0 0 0 0 0 
1 1 1 1 0 0 0 0 1 1 1 1 0 0 1 1 0 1 1 1 1 1 1 1 0 1 1 1 1 1 
1 1 1 1 1 1 1 1 1 0 0 0 0 1 1 0 0 0 0 1 1 1 1 1 1 1 1 1 1 1 
1 1 1 1 1 1 0 0 1 1 1 1 1 1 1 1 1 1 1 1 1 1 1 1 1 1 1 0 0 0 
0 0 0 0 0 1 1 1 0 0 0 0 1 0 1 1 1 1 1 1 1 1 1 1 1 1 0 0 1 1 
1 1 1 1 1 1 1 1 1 0 0 1 1 1 1 0 0 0 1 1 1 1 1 0 1 1 1 1 0 0 
0 1 0 1 1 1 1 1 1 1 0 1 1 1 1 1 0 0 1 1 1 1 1 1 0 0 0 0 1 0 
1 1 1 1 1 1 1 1 1 1 1 1 1 1 1 1 0 0 0 0 0 0 0 0 0 0 1 1 1 1 
0 1 1 1 1 1 0 1 1 0 0 0 0 0 0 1 1 1 0 0 1 1 1 0 0 1 1 1 1 1 
1 1 1 1 1 1 1 1 1 0 1 0 1 1 1 1 0 1 0 1 1 0 0 0 1 1 0 0 0 0 
1 1 1 1 1 1 1 1 1 0 1 1 1 1 1 1 1 1 1 1 1 1 0 0 0 0 1 1 1 1 
1 0 0 0 0 0 1 0 1 0 0 1 1 1 1 1 1 1 1 1 1 1 0 1 1 1 1 1 1 0 
1 0 0 1 1 1 0 0 0 0 0 0 0 1 0 0 0 1 0 0 1 1 1 1 1 1 1 1 1 1 
0 0 1 1 0 0 1 1 1 1 1 1 0 1 1 1 1 1 1 1 0 0 0 0 0 0 1 1 1 0 
0 0 0 1 0 1 1 1 1 1 0 1 1 0 1 1 1 0 0 1 1 1 1 0 0 1 1 1 1 1 
0 0 1 1 1 1 1 1 0 0 0 0 1 1 1 0 0 0 1 1 0 0 0 1 1 0 0 1 0 0 
0 0 1 0 1 1 1 1 1 1 1 0 1 0 0 1 1 1 1 1 1 1 0 0 0 1 1 1 0 0 
1 1 1 1 1 0 0 0 1 1 1 1 1 1 1 0 0 0 0 1 1 0 0 1 1 1 0 0 1 1 
1 1 1 1 0 1 1 1 0 0 0 0 1 1 1 1 1 1 1 1 0 1 0 0 1 1 1 0 0 1 
1 1 1 1 1 1 1 1 1 1 1 1 1 1 1 0 1 1 0 1 1 0 0 1 1 1 0 1 1 1 
0 1 0 0 0 0 0 0 0 1 1 1 1 1 1 1 1 0 1 1 0 0 0 0 1 1 0 1 0 0 
0 0 1 1 0 0 0 0 1 1 0 0 0 0 0 1 1 1 0 1 1 0 0 0 1 1 1 1 0 0 
0 0 0 0 1 1 0 1 1 0 0 1 1 1 0 0 0 0 1 1 1 0 1 1 0 0 1 0 0 1 
0 1 1 0 1 1 0 0 0 0 1 1 0 1 1 0 0 1 1 0 0 1 1 0 1 0 0 1 0 0 
0 0 1 0 1 1 1 1 1 1 0 1 1 1 1 1 1 1 1 0 0 0 0 0 0 1 1 1 0 0 
0 0 1 0 0 1 0 1 1 0 0 1 1 1 1 1 1 0 1 1 1 0 0 0 0 0 0 1 0 1 
0 0 1 1 1 1 1 1 1 1 1 1 0 1 1 1 0 0 1 1 1 0 0 1 1 1 0 0 0 0 
1 1 0 0 0 1 1 0 1 1 1 1 1 1 1 1 0 0 0 0 0 0 1 1 1 1 1 0 0 1 
1 0 0 1 1 1 1 0 0 0 0 1 1 1 1 0 0 1 1 1 0 0 0 0 0 0 0 0 1 1 
0 0 0 0 0 0 1 1 1 0 0 1 1 0 0 0 0 0 0 1 1 0 0 1 1 1 1 1 1 1 
1 0 0 0 1 1 1 0 1 1 1 1 1 0 0 1 1 0 0 0 1 1 1 0 0 0 0 0 0 1 
1 0 0 0 1 1 0 0 0 0 0 0 0 0 0 1 1 0 0 0 1 0 0 0 1 1 0 0 1 1 
1 1 1 0 0 0 0 0 0 1 1 1 1 0 0 0 1 1 1 0 1 1 1 1 1 1 1 0 0 0 
0 0 0 1 1 0 1 1 1 1 0 0 1 1 0 0 0 0 1 1 0 0 1 0 1 0 1 1 0 0 
1 1 1 0 1 1 0 1 1 0 1 1 0 0 0 0 0 1 0 0 0 0 0 0 0 0 0 1 1 0 
0 1 1 0 0 0 0 0 1 0 1 1 0 1 1 1 1 0 0 0 1 1 1 1 1 0 1 1 0 1 
1 0 0 0 0 0 0 0 0 1 0 0 0 1 1 1 0 0 0 0 1 0 0 0 0 0 0 0 0 1 
0 1 1 1 1 1 0 0 0 0 0 1 1 0 1 0 0 1 0 0 1 1 0 1 1 0 0 0 0 0 
0 0 1 0 0 0 0 1 0 0 1 1 1 0 0 0 1 1 1 0 1 0 0 0 0 0 0 1 1 0 
0 1 1 1 1 1 0 0 0 0 0 1 1 1 1 0 0 0 1 1 0 0 1 1 0 0 0 1 1 1 
0 1 0 0 0 0 0 0 0 1 1 0 0 0 1 0 0 0 1 1 1 1 1 0 0 0 0 0 0 1 
1 0 0 0 1 1 1 1 0 0 0 0 0 0 0 1 0 1 0 0 0 0 1 0 0 0 0 0 0 1 
1 1 1 1 1 1 0 1 1 0 1 1 0 0 0 0 0 0 0 0 0 0 0 0 1 0 0 0 0 0 
1 1 1 1 0 1 1 1 1 0 0 0 0 0 0 0 0 1 1 1 1 0 0 0 0 0 0 0 0 0 
0 0 0 0 1 1 1 0 1 1 0 0 0 0 0 1 1 0 0 0 0 0 0 1 0 0 0 0 1 1 
1 1 0 0 1 1 0 0 0 0 0 0 1 0 0 0 0 1 0 0 1 0 0 0 0 1 1 1 1 0 
0 0 0 0 1 0 0 0 0 0 0 1 1 1 1 0 0 0 0 0 0 0 0 1 0 1 0 0 1 1 
0 0 1 0 0 0 0 0 0 0 0 0 0 0 0 0 0 1 0 0 0 0 0 0 0 0 1 0 0 1 
1 1 1 1 0 0 1 0 0 0 0 0 1 0 1 1 0 0 0 0 0 0 0 1 1 1 1 1 0 1 
1 1 1 0 0 0 0 0 0 0 0 0 1 0 1 1 0 0 0 0 0 0 0 0 0 1 0 1 1 0 
0 0 0 0 0 0 0 1 1 0 0 0 1 0 0 0 0 0 0 0 0 1 0 0 1 1 1 0 0 0 
0 0 1 1 0 0 1 1 0 0 0 0 0 1 0 0 1 1 0 1 1 0 0 0 1 0 1 1 0 0 
1 1 1 0 0 0 0 0 1 0 0 0 0 0 0 0 0 0 0 0 0 1 1 1 0 0 0 0 0 0 
1 0 0 1 0 0 0 0 0 0 0 0 1 0 0 0 0 0 0 0 0 1 0 1 0 0 0 0 0 0 
0 0 0 1 0 0 0 0 0 1 0 0 0 1 0 1 0 1 1 0 0 0 1 1 0 1 1 0 0 0 
0 0 1 1 0 0 0 1 1 1 0 0 0 0 0 0 1 1 1 1 0 0 0 0 0 0 0 0 1 1 
0 0 0 0 1 1 0 0 0 0 0 0 0 1 1 1 0 0 0 0 0 0 0 0 0 0 0 0 1 0 
0 0 1 0 1 0 0 0 1 1 1 0 0 0 0 0 0 1 0 0 0 0 0 0 0 0 0 0 1 0 
0 0 0 0 0 1 0 0 0 0 0 1 0 0 0 1 0 1 0 0 0 0 1 0 0 0 0 0 0 0 
0 1 0 0 0 1 1 0 0 0 0 0 0 0 0 0 0 0 0 0 0 0 0 0 0 0 0 1 0 1 
0 0 1 1 0 0 1 1 1 1 0 0 0 1 0 0 0 0 0 0 1 1 0 0 0 0 0 0 0 0 
0 0 0 0 0 0 1 0 0 0 0 0 1 1 0 0 0 0 0 0 0 0 0 0 0 0 0 1 1 0 
0 1 0 0 0 0 0 0 1 0 0 1 0 0 0 0 0 0 1 1 0 0 0 0 0 0 0 0 0 0 
0 1 1 1 0 0 0 0 0 1 1 0 1 0 0 0 1 0 1 0 0 0 1 1 1 0 0 1 0 0 
1 1 0 0 0 1 1 0 0 0 0 0 0 0 1 1 0 0 0 0 0 1 0 0 0 0 0 0 0 1 
0 1 0 1 1 1 0 0 0 1 0 0 0 0 0 0 0 0 0 0 0 0 0 0 0 1 0 0 1 1 
0 1 0 0 0 0 0 1 0 0 0 0 1 0 0 1 0 1 0 0 0 0 0 0 1 1 0 1 1 1 


SCALARS sensitivity_number float
LOOKUP_TABLE default
0.14267110191942384 0.13035631433582845 0.11803453087424026 0.13025826169630414 0.1178162565792416 0.0777156806298283 
0.06867161403001867 0.08058051951293337 0.08445421182538923 0.08057083456382194 0.08402396452130437 0.08015549466559077 
0.051634640197605955 9.500134942317449e-09 6.53763282182785e-09 1.421437935317371e-08 1.040132463701199e-08 0.07803203601849672 
0.07006962383327907 0.06897592743802307 0.0689509528613757 0.04326889698097305 0.042383663504717305 0.020576664585814843 
0.029383952043417202 0.021942648855605366 1.0353958571031523e-07 0.03660191630754087 0.040081887177520925 0.044807288298825604 
0.05069299896588052 0.05775305105933785 0.06374033312669222 0.07317532745732208 0.04152832420603142 0.0693442928352827 
0.008104555191613594 0.07547208247703834 1.2428092319957656e-07 0.06938280053482652 1.4244333149637302e-07 1.4911942971429605e-07 
1.3471980805275975e-07 0.07789966410397058 0.07779551164099906 1.3512834066710672e-07 1.4600747844117005e-07 1.4167457468623104e-07 
1.5060989402163588e-07 0.0710212667161354 0.06862497704742762 1.5083571691207742e-07 0.04982634309761466 0.03682700478099563 
1.406133380299721e-07 0.019327212193921483 0.14728714348202807 0.14268575002197392 0.11813361486241014 0.13041032704025174 
0.10582408752009424 0.09353866126685698 0.08126171265989394 0.06898582647373813 0.03981959241834496 0.021556536513163003 
8.526373328328073e-08 8.184170493383205e-08 8.804409345197389e-08 9.214635384783128e-08 1.0217249734053753e-07 9.687917301996735e-08 
1.1327147374435834e-07 1.077735228219449e-07 1.183064293873896e-07 1.2269611921539797e-07 1.3075742616674367e-07 1.3615234291393967e-07 
0.01722151641925784 0.0425915970512487 0.07380954404452862 0.12284599944589798 0.09845972759613277 0.16897774478585448 
0.2590675304559326 0.24133019882634082 0.14838217114490257 0.14839384766098412 0.14833984685003596 0.14849781118281802 
0.14873917405615456 0.14977478540274144 0.14915526698815182 0.1506022772494099 0.15157309965562707 0.15320015523069058 
0.15252551343893728 0.15338054582797953 0.15274842977682931 0.15114246623708835 0.14841403966253303 0.1446686250164924 
0.13547134484396575 0.14020981713418856 0.12687963340268207 0.13090867013489393 0.12356054294972145 0.12093374368755769 
0.11707168720282224 0.11884118859392519 0.11380263765068326 0.11543470421696139 0.11211785537365503 0.11038474928204242 
0.10704468496994257 0.10865925254471563 0.10478198915030812 0.10568927098866285 0.10451631509654931 0.10494946113334057 
0.10744410442673819 0.10601672187544597 0.11037513704788074 0.10897012429316699 0.11145199809005664 0.11194134826714683 
0.10964874413878949 0.11147001814203535 0.10143502689903573 0.10627034784128762 0.09582179736420329 0.0903398824941789 
0.08246324603877585 0.08581255168168728 0.07745498370977695 0.07993243962762686 0.07448643954337406 0.07102233352192057 
0.06385206584199674 0.0673570541680111 0.05844977293772123 0.0608128251270653 0.05700909030518053 0.05665200561782972 
0.06181110805959849 0.05833555653104456 0.07279556626121438 0.06726133001882176 0.07628677853831589 0.07717764843491183 
0.07525449517528493 0.0763221094645155 0.07350389010095236 0.07432322552196585 0.07274795889889653 0.07197074982658659 
0.070418364201283 0.07119478159642115 0.06886646811325373 0.0696424434251497 0.06809049084557015 0.06731450356583288 
0.06576248525773407 0.0665384983615342 0.06437948824821836 0.06498646299405683 0.06393470774125945 0.0636892539654959 
0.06330356337320481 0.06349654565982336 0.06291294415620821 0.06310982553569287 0.0627304713242564 0.06258642767334113 
0.06255643316214173 0.06207269026148901 0.06104198185365656 0.060093452548035775 0.06309533697256829 0.07490700635773292 
0.06721277657820168 0.08942081943033058 0.22220590379898963 0.1901987499662238 0.22784236834801944 0.11150664231476415 
0.15094266484824612 0.08126585361281893 0.05126631441828923 0.007587734912433522 0.03264984954869765 1.0618339781290282e-07 
9.333990640877572e-08 8.419434832099748e-08 6.902734270308856e-08 7.661249481510177e-08 6.166935751665674e-08 5.444661549534872e-08 
4.7427115877751145e-08 3.428899725922171e-08 4.067422849953852e-08 2.8356424182489303e-08 2.2939518470752805e-08 1.3771279983081443e-08 
1.807261707780418e-08 1.0040554498013654e-08 4.750451328553638e-09 6.884495923434907e-09 2.9436401968428402e-09 2.0421970395846655e-09 
1.4657033273083935e-09 1.159380974173912e-09 1.2315443592099228e-09 0.2716380655013215 0.18553173283298696 0.21966631195017386 
0.17336704320229626 0.16393764066875047 0.15084051436194754 0.15690015563033366 0.14564184525410798 0.14096820076482516 
0.1366641932095694 0.1326264324881902 0.12880067584737387 0.1215942015426893 0.12513789922117166 0.11814256190076446 
0.11479450132366562 0.11160120054805216 0.10600997305572847 0.10864179180851503 0.1038118360026062 0.10217529745109939 
0.10129404475686574 0.10247983991992855 0.10134181605231407 0.10469695187019432 0.10779487456246764 0.11144603151663941 
0.1183469161882473 0.11515895134491845 0.12042665446014915 0.12115961881854137 0.12023103825628972 0.11378504439878176 
0.11775608959459334 0.10874106073638888 0.10311949671836991 0.09737790858498398 0.0869604546203489 0.0918979918472813 
0.08274938507670271 0.07935281539109953 0.07661347548127218 0.0728402804728032 0.07448541612099477 0.07190917319749318 
0.07182290985658576 0.07273035759437269 0.07632200640122462 0.07435243842562793 0.07845307690328249 0.08085990956409955 
0.08373312996254774 0.09123585364572362 0.08723160574910872 0.09522154762880766 0.09823061672426038 0.0994293919197904 
0.09335642588825736 0.09787408749969662 0.0859028270212123 0.07645101154390786 0.0671975299248651 0.05503912733300398 
0.05967390166575458 0.05172774091184134 0.04092603011321596 0.04053203271320775 0.0084871699846036 0.023065373871470906 
1.0741344878137959e-07 8.99451943261201e-08 9.481111532298488e-08 1.0088488353063047e-07 1.0509003774772428e-07 9.455614216385531e-08 
9.680626140300208e-08 1.0040717232006231e-07 9.840418376027901e-08 1.0110481499355249e-07 9.681191905113413e-08 9.254069055784777e-08 
8.587557504438254e-08 6.739486530276595e-08 7.687769128707678e-08 5.793636119025301e-08 4.867670290105736e-08 3.226363335700162e-08 
4.0011118055667036e-08 2.5619887873741803e-08 1.9866864216169592e-08 1.0740561186516171e-08 1.4919605494328064e-08 4.942870960569215e-09 
7.285665962161681e-09 3.0348385166179938e-09 2.057500745320674e-09 1.1593759175130604e-09 1.4680442924880558e-09 0.11506108505578336 
0.11823060783580354 0.09896600337855933 0.11268376454846836 0.10892001721619156 0.08557766092148003 0.07109148746268544 
0.07242736667091687 0.08593158624651155 0.08978046558069958 0.058607518198966806 0.03757044026046005 9.270643652501744e-08 
1.0777584084598342e-07 7.116764852826333e-08 3.145061834279779e-08 3.735701779249861e-08 0.14540884491237316 0.14253291230765774 
0.1424926927519173 0.08023301896629756 0.10041408324633941 6.346499426080923e-09 0.16720591320847497 0.18071453199816861 
0.11813716613987751 0.10581707579129067 0.14629266972312024 0.1464888979455804 2.8615336447928754e-09 0.11195387593878299 
0.1089623973830448 0.0706315814749748 0.07121005208581556 9.159971923326203e-08 1.0440093722144774e-07 0.13045781637312628 
0.08125336739289311 0.0935267887649565 0.019414645568824114 0.020484203237350108 0.14267333212989544 0.14293757811334648 
0.14565243128471425 0.14454746953495495 0.14597145413412047 0.06668357297271438 0.06659211219001282 0.06693089216744479 
0.1759829263023118 0.11692351655734559 0.06039846965108647 0.03625590872707127 9.673446876267133e-08 0.005473305051266016 
8.695911804624858e-08 7.844422084725523e-08 5.027653071129651e-08 4.366474272202701e-08 2.6004946435937047e-08 1.260791472559623e-08 
9.133839315583948e-09 0.22114651049472525 0.20117424520980381 0.1583580670507736 0.15119987459409126 0.128329691396833 
0.13208113066182012 0.12480647688798163 0.12146263427315089 0.09859714708002056 0.09829747200817207 0.10647378202593782 
0.10979303471596052 0.11451979947494982 0.11238016114819781 0.09471329342007094 0.08993313136872792 0.0763186825836434 
0.07423402023815755 0.08011383877558054 0.08277818892587699 0.0938919052792132 0.09321498605359518 0.0671163708598752 
0.061665591270497255 0.04548232224509384 0.03575108093535117 0.015559605016033625 0.005711711422153463 8.51346110408507e-08 
5.938268148649591e-08 5.0588655588322116e-08 2.8310927663477464e-08 2.2581381848762897e-08 2.884029416029449e-09 0.14205431154180237 
0.09972453475860768 0.1032852179457251 0.07793699709041114 0.09231815478449176 9.315888468411432e-08 0.11526895703346181 
0.09967622754993818 0.07509905943754039 0.052278371371291786 0.07878302428464526 0.022168180220674055 5.709239177650448e-08 
0.11637326485740374 0.11922867995679265 3.48954526063267e-08 8.213181505864194e-08 0.06606329320061964 0.048237898498917534 
1.6580536435852492e-08 1.3228072418565478e-08 0.06898558864675261 6.806172429938785e-08 4.383585643577678e-09 7.071319348332423e-09 
0.04150032908206523 8.521524364484688e-08 9.202194956784118e-08 8.79744262313356e-08 1.0206029681800378e-07 9.673763896232052e-08 
1.0772526747062204e-07 1.1306422500366624e-07 1.2099837278415995e-07 1.1787591031237837e-07 1.2588399824750981e-07 1.308183168127057e-07 
0.08192033809003035 0.13030254375780756 0.10468861054997673 0.17250555590110067 0.14253354423005915 0.14337045195228457 
0.14400545964121167 0.14481069028294052 0.13853603809062873 0.12970375102455373 0.13427252262111233 0.12150123185706085 
0.1253164772585926 0.11844423367710061 0.11610806549463154 0.11279169350594911 0.11430235061435089 0.10995821421881244 
0.1113826589658755 0.10847262684586484 0.10692831643189009 0.10384009243539263 0.10536101613164316 0.1014507993887895 
0.10248067794984102 0.10095878386301932 0.10111055398167063 0.10278918636288098 0.10181558208136168 0.10447300872948341 
0.1037334687491197 0.10495456490269979 0.1051718577554656 0.1035957021103579 0.10489373265488666 0.0968596145800552 
0.10091436381097266 0.09195411625034046 0.08710198458298318 0.08060067538992004 0.08320003923105636 0.07685080063614427 
0.07876276088774854 0.07427129788222993 0.07115677109855666 0.06467389787669736 0.06786693417418518 0.059294395374865194 
0.06176684589528192 0.05753572214785557 0.056613571938840236 0.05844161246188104 0.05670638640020717 0.0664705416181069 
0.06206559104666962 0.07028171779451815 0.07050803489178936 0.06819166102307284 0.06932419937626885 0.06761376008971735 
0.06785897413112599 0.06733115885924303 0.06703938526044152 0.066453639867085 0.0667453784732818 0.06587040809526033 
0.06616200740106268 0.06557875913936322 0.0652871076724379 0.06470379881908303 0.06499545704829192 0.06427693427357811 
0.06441214514176441 0.06432907090938347 0.06457747858045036 0.06516058211314182 0.06486914505839192 0.06574287171678446 
0.06545166526212955 0.06604522714043828 0.06636431414556639 0.06151097634235979 0.0652942522179385 0.06020024725739506 
0.0912309865866395 0.023557995452973896 6.404279119195988e-08 2.1046351571370036e-08 4.305551899838763e-09 1.2467695122929681e-09 
1.808892044826893e-09 0.13610336464083364 0.14048052255905677 0.10616442072494968 0.10363681619556397 0.10145689038958884 
0.10067731040268876 0.11458965370704662 0.1045366009672475 0.08183326710776045 0.07264937257556645 0.07437228366677454 
0.07611208967346768 0.08937190245766823 0.08344849279945665 0.05628094851279847 0.02582126596272648 1.108582343984676e-07 
1.0528469965554255e-07 9.824661449819521e-08 7.646221282024115e-08 4.230570434422796e-08 1.7576217128186248e-08 1.8148964676826459e-09 
0.12234940004203622 0.12571740409637813 6.252327955490619e-08 3.388349365583507e-08 1.076034195863104e-07 7.010739480081296e-08 
7.391605126699234e-08 0.04507123285830485 0.045578805489314124 4.0145101882954684e-08 4.512717605549324e-08 3.903633768591225e-08 
0.1300541277290966 0.1722722169690507 0.07681804271268139 1.1850214088757267e-07 8.33749143090693e-08 0.1335433678762358 
0.13863104515781777 2.5263747727078868e-09 4.384976700676269e-09 0.04455836624218715 0.01941880241621981 3.242038307743974e-08 
0.1034004703192802 0.06765304629921576 0.016326058690117863 7.818512271531828e-08 8.767876922481257e-08 5.4546991959628434e-08 
4.7049243204039624e-08 2.820446862597366e-08 0.036818131210588766 0.05799545312862034 0.11373257660836208 0.09154605945479025 
0.10093565245482705 0.09878868220909842 0.0827549960256182 0.0737517116302375 0.07526982129207273 0.08160151421212765 
0.0656149553155713 0.05176798156485346 0.04011919844223499 7.573876237552402e-08 1.1306880824140686e-07 1.168323270984495e-07 
3.794901377060723e-08 4.384442989020431e-08 0.08154498225677506 0.0834745865616204 6.988728008324837e-09 1.0234393644074096e-08 
0.15362934419713473 0.16449664863309932 0.10574222059516858 0.13211699684203554 4.35767510847251e-09 0.08123321920109247 
0.09348068748062718 0.03729944740357852 0.006584492099923199 0.13009327968310988 0.13003006632619035 0.1314260039663969 
0.13108017209689293 0.04655410822757421 0.04611898202123597 0.04796995755865205 0.047504784270379644 0.07134271982331629 
0.006014778143086188 0.02555026244599493 9.307070038321626e-08 5.641919796176966e-08 5.004269957270688e-08 1.8024272250072128e-08 
1.3935420531894885e-08 0.14514968955612081 0.09293785789860706 0.09184177912100872 0.09601350339712568 0.09856872536266989 
0.10278851665746928 0.10128428077097165 0.08918605396390257 0.08591264763051493 0.07572954124080224 0.073130911389481 
0.07413397547387685 0.08232017187844992 0.08325316176597697 0.06720247045232054 0.06539453244959861 0.0652510755397615 
0.06407158664977237 0.03911821796692123 0.12907937204102976 0.12601252912443017 0.09456313224237466 0.0965007894682779 
0.09374998422394558 0.09218166487074599 0.07217018931699337 0.07136363445011004 0.0799022927669616 0.07711431904091823 