# vtk DataFile Version 3.0
Results from optimization
ASCII
DATASET UNSTRUCTURED_GRID

POINTS 3131 float
0.0 0.0 0.0 0.0 30.0 0.0 
100.0 0.0 0.0 100.0 30.0 0.0 
0.0 1.0 0.0 0.0 2.0 0.0 
0.0 3.0 0.0 0.0 4.0 0.0 
0.0 5.0 0.0 0.0 6.0 0.0 
0.0 7.0 0.0 0.0 8.0 0.0 
0.0 9.0 0.0 0.0 10.0 0.0 
0.0 11.0 0.0 0.0 12.0 0.0 
0.0 13.0 0.0 0.0 14.0 0.0 
0.0 15.0 0.0 0.0 16.0 0.0 
0.0 17.0 0.0 0.0 18.0 0.0 
0.0 19.0 0.0 0.0 20.0 0.0 
0.0 21.0 0.0 0.0 22.0 0.0 
0.0 23.0 0.0 0.0 24.0 0.0 
0.0 25.0 0.0 0.0 26.0 0.0 
0.0 27.0 0.0 0.0 28.0 0.0 
0.0 29.0 0.0 1.0 0.0 0.0 
2.0 0.0 0.0 3.0 0.0 0.0 
4.0 0.0 0.0 5.0 0.0 0.0 
6.0 0.0 0.0 7.0 0.0 0.0 
8.0 0.0 0.0 9.0 0.0 0.0 
10.0 0.0 0.0 11.0 0.0 0.0 
12.0 0.0 0.0 13.0 0.0 0.0 
14.0 0.0 0.0 15.0 0.0 0.0 
16.0 0.0 0.0 17.0 0.0 0.0 
18.0 0.0 0.0 19.0 0.0 0.0 
20.0 0.0 0.0 21.0 0.0 0.0 
22.0 0.0 0.0 23.0 0.0 0.0 
24.0 0.0 0.0 25.0 0.0 0.0 
26.0 0.0 0.0 27.0 0.0 0.0 
28.0 0.0 0.0 29.0 0.0 0.0 
30.0 0.0 0.0 31.0 0.0 0.0 
32.0 0.0 0.0 33.0 0.0 0.0 
34.0 0.0 0.0 35.0 0.0 0.0 
36.0 0.0 0.0 37.0 0.0 0.0 
38.0 0.0 0.0 39.0 0.0 0.0 
40.0 0.0 0.0 41.0 0.0 0.0 
42.0 0.0 0.0 43.0 0.0 0.0 
44.0 0.0 0.0 45.0 0.0 0.0 
46.0 0.0 0.0 47.0 0.0 0.0 
48.0 0.0 0.0 49.0 0.0 0.0 
50.0 0.0 0.0 51.0 0.0 0.0 
52.0 0.0 0.0 53.0 0.0 0.0 
54.0 0.0 0.0 55.0 0.0 0.0 
56.0 0.0 0.0 57.0 0.0 0.0 
58.0 0.0 0.0 59.0 0.0 0.0 
60.0 0.0 0.0 61.0 0.0 0.0 
62.0 0.0 0.0 63.0 0.0 0.0 
64.0 0.0 0.0 65.0 0.0 0.0 
66.0 0.0 0.0 67.0 0.0 0.0 
68.0 0.0 0.0 69.0 0.0 0.0 
70.0 0.0 0.0 71.0 0.0 0.0 
72.0 0.0 0.0 73.0 0.0 0.0 
74.0 0.0 0.0 75.0 0.0 0.0 
76.0 0.0 0.0 77.0 0.0 0.0 
78.0 0.0 0.0 79.0 0.0 0.0 
80.0 0.0 0.0 81.0 0.0 0.0 
82.0 0.0 0.0 83.0 0.0 0.0 
84.0 0.0 0.0 85.0 0.0 0.0 
86.0 0.0 0.0 87.0 0.0 0.0 
88.0 0.0 0.0 89.0 0.0 0.0 
90.0 0.0 0.0 91.0 0.0 0.0 
92.0 0.0 0.0 93.0 0.0 0.0 
94.0 0.0 0.0 95.0 0.0 0.0 
96.0 0.0 0.0 97.0 0.0 0.0 
98.0 0.0 0.0 99.0 0.0 0.0 
100.0 1.0 0.0 100.0 2.0 0.0 
100.0 3.0 0.0 100.0 4.0 0.0 
100.0 5.0 0.0 100.0 6.0 0.0 
100.0 7.0 0.0 100.0 8.0 0.0 
100.0 9.0 0.0 100.0 10.0 0.0 
100.0 11.0 0.0 100.0 12.0 0.0 
100.0 13.0 0.0 100.0 14.0 0.0 
100.0 15.0 0.0 100.0 16.0 0.0 
100.0 17.0 0.0 100.0 18.0 0.0 
100.0 19.0 0.0 100.0 20.0 0.0 
100.0 21.0 0.0 100.0 22.0 0.0 
100.0 23.0 0.0 100.0 24.0 0.0 
100.0 25.0 0.0 100.0 26.0 0.0 
100.0 27.0 0.0 100.0 28.0 0.0 
100.0 29.0 0.0 1.0 30.0 0.0 
2.0 30.0 0.0 3.0 30.0 0.0 
4.0 30.0 0.0 5.0 30.0 0.0 
6.0 30.0 0.0 7.0 30.0 0.0 
8.0 30.0 0.0 9.0 30.0 0.0 
10.0 30.0 0.0 11.0 30.0 0.0 
12.0 30.0 0.0 13.0 30.0 0.0 
14.0 30.0 0.0 15.0 30.0 0.0 
16.0 30.0 0.0 17.0 30.0 0.0 
18.0 30.0 0.0 19.0 30.0 0.0 
20.0 30.0 0.0 21.0 30.0 0.0 
22.0 30.0 0.0 23.0 30.0 0.0 
24.0 30.0 0.0 25.0 30.0 0.0 
26.0 30.0 0.0 27.0 30.0 0.0 
28.0 30.0 0.0 29.0 30.0 0.0 
30.0 30.0 0.0 31.0 30.0 0.0 
32.0 30.0 0.0 33.0 30.0 0.0 
34.0 30.0 0.0 35.0 30.0 0.0 
36.0 30.0 0.0 37.0 30.0 0.0 
38.0 30.0 0.0 39.0 30.0 0.0 
40.0 30.0 0.0 41.0 30.0 0.0 
42.0 30.0 0.0 43.0 30.0 0.0 
44.0 30.0 0.0 45.0 30.0 0.0 
46.0 30.0 0.0 47.0 30.0 0.0 
48.0 30.0 0.0 49.0 30.0 0.0 
50.0 30.0 0.0 51.0 30.0 0.0 
52.0 30.0 0.0 53.0 30.0 0.0 
54.0 30.0 0.0 55.0 30.0 0.0 
56.0 30.0 0.0 57.0 30.0 0.0 
58.0 30.0 0.0 59.0 30.0 0.0 
60.0 30.0 0.0 61.0 30.0 0.0 
62.0 30.0 0.0 63.0 30.0 0.0 
64.0 30.0 0.0 65.0 30.0 0.0 
66.0 30.0 0.0 67.0 30.0 0.0 
68.0 30.0 0.0 69.0 30.0 0.0 
70.0 30.0 0.0 71.0 30.0 0.0 
72.0 30.0 0.0 73.0 30.0 0.0 
74.0 30.0 0.0 75.0 30.0 0.0 
76.0 30.0 0.0 77.0 30.0 0.0 
78.0 30.0 0.0 79.0 30.0 0.0 
80.0 30.0 0.0 81.0 30.0 0.0 
82.0 30.0 0.0 83.0 30.0 0.0 
84.0 30.0 0.0 85.0 30.0 0.0 
86.0 30.0 0.0 87.0 30.0 0.0 
88.0 30.0 0.0 89.0 30.0 0.0 
90.0 30.0 0.0 91.0 30.0 0.0 
92.0 30.0 0.0 93.0 30.0 0.0 
94.0 30.0 0.0 95.0 30.0 0.0 
96.0 30.0 0.0 97.0 30.0 0.0 
98.0 30.0 0.0 99.0 30.0 0.0 
16.0 1.0 0.0 22.0 1.0 0.0 
28.0 1.0 0.0 34.0 1.0 0.0 
40.0 1.0 0.0 46.0 1.0 0.0 
52.0 1.0 0.0 58.0 1.0 0.0 
64.0 1.0 0.0 70.0 1.0 0.0 
76.0 1.0 0.0 82.0 1.0 0.0 
15.0 29.0 0.0 20.0 29.0 0.0 
25.0 29.0 0.0 30.0 29.0 0.0 
35.0 29.0 0.0 40.0 29.0 0.0 
45.0 29.0 0.0 50.0 29.0 0.0 
55.0 29.0 0.0 60.0 29.0 0.0 
65.0 29.0 0.0 70.0 29.0 0.0 
75.0 29.0 0.0 80.0 29.0 0.0 
99.0 13.0 0.0 85.0 29.0 0.0 
1.0 12.0 0.0 1.0 18.0 0.0 
99.0 18.0 0.0 88.0 1.0 0.0 
8.99999999994914 0.999999999973743 0.0 99.0 8.0 0.0 
8.0 29.0 0.0 89.0 29.0 0.0 
99.0 22.0 0.0 0.999995859328856 6.99995963616369 0.0 
1.0 23.0 0.0 93.0 1.0 0.0 
93.0 29.0 0.0 4.99897846844128 0.999401131561401 0.0 
99.0 4.0 0.0 99.0 25.0 0.0 
4.0 29.0 0.0 0.998018130894958 3.99456365118287 0.0 
96.0 29.0 0.0 1.0 27.0 0.0 
2.98755098591844 0.99220568858159 0.0 13.0 1.0 0.0 
97.0 1.0 0.0 99.0 27.0 0.0 
0.999999999429266 9.99999999116626 0.0 1.0 16.0 0.0 
20.0 1.0 0.0 26.0 1.0 0.0 
32.0 1.0 0.0 38.0 1.0 0.0 
44.0 1.0 0.0 50.0 1.0 0.0 
56.0 1.0 0.0 62.0 1.0 0.0 
68.0 1.0 0.0 74.0 1.0 0.0 
80.0 1.0 0.0 86.0 1.0 0.0 
99.0 15.0 0.0 10.0 29.0 0.0 
17.0 29.0 0.0 22.0 29.0 0.0 
27.0 29.0 0.0 32.0 29.0 0.0 
37.0 29.0 0.0 42.0 29.0 0.0 
47.0 29.0 0.0 52.0 29.0 0.0 
57.0 29.0 0.0 62.0 29.0 0.0 
67.0 29.0 0.0 72.0 29.0 0.0 
77.0 29.0 0.0 82.0 29.0 0.0 
0.982043965477184 1.98304218642421 0.0 1.0 29.0 0.0 
99.0 1.0 0.0 99.0 29.0 0.0 
0.983223912217958 0.987621281485569 0.0 0.999949380687591 5.99961944502072 0.0 
0.999999970537249 8.99999955168247 0.0 1.0 14.0 0.0 
1.0 20.0 0.0 1.0 22.0 0.0 
1.0 25.0 0.0 6.99998134409618 0.99999175922936 0.0 
10.9999999999491 0.999999999973743 0.0 15.0 1.0 0.0 
18.0 1.0 0.0 24.0 1.0 0.0 
30.0 1.0 0.0 36.0 1.0 0.0 
42.0 1.0 0.0 48.0 1.0 0.0 
54.0 1.0 0.0 60.0 1.0 0.0 
66.0 1.0 0.0 72.0 1.0 0.0 
78.0 1.0 0.0 84.0 1.0 0.0 
90.0 1.0 0.0 92.0 1.0 0.0 
95.0 1.0 0.0 99.0 2.0 0.0 
99.0 5.0 0.0 99.0 6.0 0.0 
99.0 9.0 0.0 99.0 10.0 0.0 
99.0 11.0 0.0 99.0 16.0 0.0 
99.0 19.0 0.0 99.0 20.0 0.0 
99.0 23.0 0.0 2.0 29.0 0.0 
5.0 29.0 0.0 6.0 29.0 0.0 
11.0 29.0 0.0 12.0 29.0 0.0 
13.0 29.0 0.0 18.0 29.0 0.0 
23.0 29.0 0.0 28.0 29.0 0.0 
33.0 29.0 0.0 38.0 29.0 0.0 
43.0 29.0 0.0 48.0 29.0 0.0 
53.0 29.0 0.0 58.0 29.0 0.0 
63.0 29.0 0.0 68.0 29.0 0.0 
73.0 29.0 0.0 78.0 29.0 0.0 
83.0 29.0 0.0 86.0 29.0 0.0 
87.0 29.0 0.0 90.0 29.0 0.0 
91.0 29.0 0.0 94.0 29.0 0.0 
97.0 29.0 0.0 16.0 2.0 0.0 
22.0 28.0 0.0 27.0 28.0 0.0 
52.0 28.0 0.0 57.0 28.0 0.0 
82.0 28.0 0.0 32.0 28.0 0.0 
37.0 28.0 0.0 62.0 28.0 0.0 
67.0 28.0 0.0 42.0 28.0 0.0 
72.0 28.0 0.0 98.0 15.0 0.0 
12.0 28.0 0.0 98.0 19.0 0.0 
89.0 28.0 0.0 98.0 10.0 0.0 
1.99999999531953 9.999999928767 0.0 93.0 2.0 0.0 
2.0 23.0 0.0 98.0 22.0 0.0 
93.0 28.0 0.0 1.99998433821395 6.9998796865685 0.0 
98.0 5.0 0.0 5.0 28.0 0.0 
85.0 28.0 0.0 96.0 28.0 0.0 
1.98413137230705 0.988341966066793 0.0 0.993390117123437 2.98985247870427 0.0 
0.999537928146093 4.99813727245904 0.0 0.999998442801018 7.99998651096591 0.0 
0.999999999636129 10.9999999944437 0.0 1.0 13.0 0.0 
1.0 15.0 0.0 1.0 17.0 0.0 
1.0 19.0 0.0 1.0 21.0 0.0 
1.0 24.0 0.0 1.0 26.0 0.0 
1.0 28.0 0.0 3.99605406296194 0.997383435909015 0.0 
5.99977465143194 0.999865295129002 0.0 7.9999965299808 0.999998450318377 0.0 
9.99999999988557 0.999999999940923 0.0 11.9999999999936 0.999999999996718 0.0 
14.0 1.0 0.0 17.0 1.0 0.0 
19.0 1.0 0.0 21.0 1.0 0.0 
23.0 1.0 0.0 25.0 1.0 0.0 
27.0 1.0 0.0 29.0 1.0 0.0 
31.0 1.0 0.0 33.0 1.0 0.0 
35.0 1.0 0.0 37.0 1.0 0.0 
39.0 1.0 0.0 41.0 1.0 0.0 
43.0 1.0 0.0 45.0 1.0 0.0 
47.0 1.0 0.0 49.0 1.0 0.0 
51.0 1.0 0.0 53.0 1.0 0.0 
55.0 1.0 0.0 57.0 1.0 0.0 
59.0 1.0 0.0 61.0 1.0 0.0 
63.0 1.0 0.0 65.0 1.0 0.0 
67.0 1.0 0.0 69.0 1.0 0.0 
71.0 1.0 0.0 73.0 1.0 0.0 
75.0 1.0 0.0 77.0 1.0 0.0 
79.0 1.0 0.0 81.0 1.0 0.0 
83.0 1.0 0.0 85.0 1.0 0.0 
87.0 1.0 0.0 89.0 1.0 0.0 
91.0 1.0 0.0 94.0 1.0 0.0 
96.0 1.0 0.0 98.0 1.0 0.0 
99.0 3.0 0.0 99.0 7.0 0.0 
99.0 12.0 0.0 99.0 14.0 0.0 
99.0 17.0 0.0 99.0 21.0 0.0 
99.0 24.0 0.0 99.0 26.0 0.0 
99.0 28.0 0.0 3.0 29.0 0.0 
7.0 29.0 0.0 9.0 29.0 0.0 
14.0 29.0 0.0 16.0 29.0 0.0 
19.0 29.0 0.0 21.0 29.0 0.0 
24.0 29.0 0.0 26.0 29.0 0.0 
29.0 29.0 0.0 31.0 29.0 0.0 
34.0 29.0 0.0 36.0 29.0 0.0 
39.0 29.0 0.0 41.0 29.0 0.0 
44.0 29.0 0.0 46.0 29.0 0.0 
49.0 29.0 0.0 51.0 29.0 0.0 
54.0 29.0 0.0 56.0 29.0 0.0 
59.0 29.0 0.0 61.0 29.0 0.0 
64.0 29.0 0.0 66.0 29.0 0.0 
69.0 29.0 0.0 71.0 29.0 0.0 
74.0 29.0 0.0 76.0 29.0 0.0 
79.0 29.0 0.0 81.0 29.0 0.0 
84.0 29.0 0.0 88.0 29.0 0.0 
92.0 29.0 0.0 95.0 29.0 0.0 
98.0 29.0 0.0 98.0 8.0 0.0 
10.0 28.0 0.0 86.0 28.0 0.0 
90.0 28.0 0.0 22.0 2.0 0.0 
28.0 2.0 0.0 34.0 2.0 0.0 
40.0 2.0 0.0 46.0 2.0 0.0 
52.0 2.0 0.0 58.0 2.0 0.0 
64.0 2.0 0.0 70.0 2.0 0.0 
76.0 2.0 0.0 82.0 2.0 0.0 
2.0 16.0 0.0 85.0 27.0 0.0 
88.0 2.0 0.0 11.9999999999928 1.99999999999631 0.0 
89.0 27.0 0.0 8.99999961400676 1.99999982348209 0.0 
5.9997075717904 1.99979502371096 0.0 1.99934767917968 4.99734291783241 0.0 
16.0 28.0 0.0 46.0 28.0 0.0 
76.0 28.0 0.0 2.0 27.0 0.0 
3.99556896721827 1.99618513026716 0.0 97.0 2.0 0.0 
2.0 20.0 0.0 94.0 28.0 0.0 
24.0 28.0 0.0 29.0 28.0 0.0 
34.0 28.0 0.0 39.0 28.0 0.0 
54.0 28.0 0.0 59.0 28.0 0.0 
64.0 28.0 0.0 69.0 28.0 0.0 
98.0 12.0 0.0 7.0 28.0 0.0 
98.0 24.0 0.0 97.0 28.0 0.0 
20.0 2.0 0.0 26.0 2.0 0.0 
32.0 2.0 0.0 38.0 2.0 0.0 
44.0 2.0 0.0 50.0 2.0 0.0 
56.0 2.0 0.0 62.0 2.0 0.0 
68.0 2.0 0.0 74.0 2.0 0.0 
80.0 2.0 0.0 86.0 2.0 0.0 
1.99999981323511 8.99999805583899 0.0 2.0 14.0 0.0 
91.0 2.0 0.0 98.0 20.0 0.0 
18.0 28.0 0.0 48.0 28.0 0.0 
78.0 28.0 0.0 83.0 28.0 0.0 
87.0 28.0 0.0 91.0 28.0 0.0 
98.0 7.0 0.0 14.0 28.0 0.0 
20.0 28.0 0.0 25.0 28.0 0.0 
30.0 28.0 0.0 35.0 28.0 0.0 
40.0 28.0 0.0 44.0 28.0 0.0 
50.0 28.0 0.0 55.0 28.0 0.0 
60.0 28.0 0.0 65.0 28.0 0.0 
70.0 28.0 0.0 74.0 28.0 0.0 
80.0 28.0 0.0 98.0 13.0 0.0 
1.99999999996321 11.9999999994391 0.0 2.0 18.0 0.0 
98.0 17.0 0.0 98.0 18.0 0.0 
8.0 28.0 0.0 98.0 3.0 0.0 
98.0 4.0 0.0 98.0 25.0 0.0 
3.0 28.0 0.0 4.0 28.0 0.0 
1.9971839117747 3.993137435461 0.0 1.98608618048036 1.98526975763388 0.0 
14.0 2.0 0.0 98.0 26.0 0.0 
98.0 27.0 0.0 1.99983949066551 5.99923056007149 0.0 
2.0 22.0 0.0 2.0 25.0 0.0 
7.99999502590895 1.99999772908988 0.0 10.9999999997687 1.99999999988056 0.0 
15.0 2.0 0.0 18.0 2.0 0.0 
[...]
CELL_DATA 3000

SCALARS element_states float
LOOKUP_TABLE default
1 1 1 1 1 0 0 0 0 1 0 0 1 0 0 0 0 0 0 0 0 0 0 0 0 0 0 0 0 0 
0 0 0 1 0 0 0 0 0 1 0 0 0 1 1 0 0 0 0 1 0 0 1 1 1 1 1 1 1 1 
1 1 0 0 0 0 0 0 0 0 0 0 0 0 0 0 0 0 0 1 1 1 1 1 1 1 1 1 1 1 
1 1 1 1 1 1 1 1 1 1 1 1 1 1 1 1 1 1 1 1 1 1 1 1 1 1 1 1 1 1 
1 1 1 1 1 1 1 1 1 1 1 1 1 1 1 1 1 1 1 1 1 1 1 1 1 1 1 1 1 1 
1 1 1 1 1 1 1 1 1 1 1 1 1 1 1 1 1 1 1 1 1 1 1 1 1 1 1 1 1 1 
1 1 1 1 1 1 1 1 0 0 0 0 0 0 0 0 0 0 0 0 0 0 0 0 0 0 0 0 0 0 
0 0 0 1 1 1 1 1 1 1 1 1 1 1 1 1 1 1 1 1 1 1 1 1 1 1 1 1 1 0 
1 0 1 1 1 1 1 1 1 1 1 1 1 1 1 1 1 1 1 1 1 1 1 1 1 1 1 1 1 1 
1 1 1 1 1 1 1 0 0 0 0 0 0 0 0 0 0 0 0 0 0 0 0 0 0 0 0 0 0 0 
0 0 0 0 0 0 0 0 0 0 0 1 1 1 1 1 1 1 1 1 1 1 0 0 0 0 0 0 1 1 
1 1 1 0 1 1 1 1 1 1 0 1 1 1 1 0 0 1 0 1 0 0 1 1 1 1 1 1 1 1 
1 1 0 0 0 0 0 0 0 0 0 0 0 1 1 1 1 1 1 1 1 1 1 1 1 1 1 1 1 1 
1 1 1 1 1 1 1 0 0 0 0 0 0 0 0 0 0 1 1 1 1 1 0 1 1 1 0 1 0 0 
1 1 0 0 1 1 0 0 0 0 0 0 0 0 0 0 0 0 0 0 0 0 0 0 1 1 1 1 1 1 
1 1 1 1 1 1 1 1 1 1 1 1 1 1 1 1 1 1 1 1 1 1 1 1 1 1 1 1 1 1 
1 1 1 1 1 1 1 1 1 1 1 1 1 1 1 1 1 1 1 1 1 1 1 1 1 1 1 1 1 1 
1 1 1 1 1 1 1 1 1 1 1 1 1 1 1 1 1 1 1 0 0 0 0 0 0 1 1 1 1 1 
1 1 1 1 1 1 1 1 1 1 0 0 0 0 0 0 0 0 1 1 0 0 0 0 0 0 0 0 0 0 
1 1 1 0 0 1 1 0 0 0 0 0 1 1 0 0 0 0 0 0 0 0 1 1 1 1 1 1 1 1 
1 0 0 0 0 0 0 0 1 1 0 0 1 1 1 1 0 0 1 0 0 1 1 1 1 0 0 0 0 1 
0 0 0 0 0 0 0 1 1 1 1 1 1 1 1 1 1 1 1 1 1 1 1 1 1 0 1 1 1 1 
1 1 1 1 1 1 0 0 1 1 1 1 1 1 1 1 1 1 0 0 0 0 0 0 0 0 1 1 0 0 
0 0 0 0 1 1 1 1 1 0 1 1 0 1 1 0 0 1 1 1 1 1 1 1 1 1 0 0 1 1 
1 1 1 0 0 0 0 0 0 0 0 1 1 1 1 1 1 1 1 1 1 1 1 1 1 1 1 1 1 1 
1 1 1 1 1 1 1 1 1 1 1 1 1 1 1 1 1 1 1 1 1 1 1 1 1 1 0 0 0 0 
0 0 1 1 0 0 0 0 0 0 0 0 0 0 0 0 0 0 0 0 0 0 1 1 1 1 1 1 0 0 
0 1 0 0 0 1 0 0 0 0 0 1 1 1 1 1 1 1 1 1 1 1 1 1 1 1 0 0 0 0 
1 1 1 0 1 1 1 1 1 1 1 1 1 1 0 1 0 0 0 0 0 0 0 0 0 1 1 0 1 1 
1 1 1 1 0 0 0 0 1 1 1 1 0 0 0 1 1 1 1 1 0 0 0 0 1 1 1 1 1 1 
0 0 0 0 1 1 1 0 0 0 0 1 0 1 0 1 1 1 1 1 0 0 0 1 1 1 0 0 0 0 
1 1 0 0 1 0 0 1 1 1 1 1 1 1 1 0 0 1 1 0 0 0 0 0 0 0 0 0 0 0 
0 0 0 0 0 0 0 1 1 1 1 1 1 1 1 1 1 1 1 1 0 0 1 1 1 1 1 1 0 0 
0 1 1 1 1 0 0 0 1 1 0 0 1 1 1 0 0 0 1 0 0 0 0 1 0 0 0 0 0 0 
1 1 1 1 0 0 0 0 1 1 1 1 0 0 1 1 0 1 1 1 1 1 1 1 0 1 1 1 1 1 
1 1 1 1 1 1 0 1 0 0 0 0 0 1 1 0 0 0 0 1 1 1 1 1 1 1 1 1 1 1 
1 1 1 1 1 0 0 0 1 1 1 1 1 1 1 1 1 1 1 1 1 1 1 1 1 1 1 0 0 0 
0 0 0 0 0 1 1 1 0 0 0 0 1 0 1 0 0 0 0 1 1 1 0 1 0 0 0 0 0 0 
1 1 1 0 1 0 0 1 1 0 0 1 0 0 0 0 0 0 1 0 1 1 1 0 1 1 1 1 0 0 
0 1 1 1 1 1 1 1 1 1 0 1 1 1 0 0 0 0 1 1 1 0 1 0 0 0 0 0 1 0 
1 1 0 1 0 1 1 1 1 1 0 0 1 1 0 0 0 0 0 0 0 0 0 0 0 0 1 1 1 0 
0 1 1 0 0 1 0 1 1 0 0 0 0 0 0 1 1 1 0 0 1 1 0 0 0 1 1 1 1 1 
0 0 1 1 1 0 0 1 0 0 1 0 0 1 0 1 0 1 0 1 0 1 0 0 0 1 0 0 0 0 
0 0 1 0 1 1 1 1 0 0 0 1 1 1 1 0 0 0 0 1 1 1 0 0 0 0 1 0 0 0 
0 0 0 0 0 0 1 0 0 0 0 1 0 0 1 1 1 1 1 1 1 1 0 1 1 1 1 0 0 0 
1 0 0 1 1 1 0 0 0 0 0 0 0 1 0 0 0 0 0 0 0 0 0 1 1 1 1 1 0 0 
0 0 1 1 0 0 1 1 0 0 1 1 0 1 0 0 1 0 0 0 0 0 0 0 0 0 1 1 1 0 
0 0 0 1 0 0 1 0 0 0 0 1 1 0 0 0 0 0 0 0 0 0 0 0 0 0 1 1 1 1 
0 0 0 0 1 1 0 0 0 0 0 0 0 0 0 1 0 0 1 1 0 0 0 0 0 0 0 1 0 0 
0 0 1 0 0 0 1 1 0 0 1 0 0 0 0 0 0 0 1 1 0 0 0 0 0 1 0 0 0 0 
1 1 1 1 0 1 0 0 1 1 1 1 1 0 0 0 0 0 1 0 0 0 0 1 1 1 0 0 1 1 
0 0 0 0 0 1 0 1 0 0 0 0 1 0 0 0 0 0 0 0 0 1 0 0 0 0 1 0 0 0 
1 1 1 1 0 0 1 1 0 0 0 0 1 0 0 0 0 0 0 1 0 0 0 1 1 1 0 1 0 0 
0 1 0 0 0 0 0 0 0 1 1 1 1 1 1 1 1 0 1 1 0 0 0 0 0 0 0 0 0 0 
0 0 1 1 0 0 0 0 1 1 0 0 0 0 1 1 0 0 0 1 1 0 0 0 1 1 0 0 0 0 
0 0 0 0 0 1 0 1 1 0 0 1 1 0 1 0 0 0 0 1 0 1 1 1 0 0 1 1 1 0 
0 1 0 0 0 0 0 1 0 0 0 0 0 0 1 0 1 1 0 0 0 1 1 0 0 0 0 1 0 0 
0 0 1 0 0 0 1 1 0 0 0 0 1 1 0 0 0 0 1 0 0 0 0 0 0 1 1 0 0 0 
0 0 0 0 0 1 0 1 1 0 0 1 1 0 0 1 1 0 0 0 0 0 0 0 0 0 0 1 0 1 
0 0 1 0 0 0 1 1 1 1 0 0 0 1 1 0 0 0 1 1 1 0 0 0 1 0 0 0 0 0 
0 0 0 0 0 0 0 0 0 0 0 0 0 0 1 1 0 0 0 0 0 0 0 1 1 1 1 0 1 1 
1 0 0 1 0 0 0 0 0 0 0 1 1 1 1 0 0 1 0 0 0 0 0 0 0 0 0 0 1 1 
0 0 0 0 0 1 0 0 1 0 1 0 0 0 0 0 0 0 0 1 1 0 0 0 0 0 0 0 0 1 
1 0 0 0 0 1 1 0 0 0 0 1 1 0 0 0 0 0 0 0 0 0 0 0 0 0 0 0 0 1 
1 0 0 0 1 1 0 0 0 0 0 0 0 0 0 0 0 0 0 0 1 0 1 0 0 0 1 1 0 0 
0 0 1 0 0 0 0 0 0 0 1 0 0 0 0 0 0 0 0 0 0 0 0 0 1 0 0 0 0 0 
0 0 0 0 1 0 1 0 0 0 1 1 0 0 0 0 0 0 1 1 0 0 0 0 1 0 1 1 0 1 
0 0 0 0 0 1 0 1 0 0 0 1 0 0 0 0 0 1 0 0 0 0 0 0 1 0 0 0 0 0 
0 1 1 0 0 0 0 0 0 0 0 0 0 1 0 1 1 0 0 0 0 1 1 0 1 0 1 1 0 0 
0 0 0 0 0 0 0 0 0 0 0 0 0 1 0 0 0 0 0 0 1 0 0 0 0 0 0 0 0 0 
0 0 0 0 0 0 0 0 0 0 0 1 1 0 0 0 0 1 0 0 0 0 0 0 0 0 1 0 0 0 
0 0 1 1 0 0 0 1 0 0 0 1 0 0 0 0 0 0 0 0 0 0 0 0 0 0 0 0 1 0 
0 0 1 0 1 1 0 0 0 0 0 1 1 1 1 0 0 0 0 1 0 0 0 0 0 0 0 0 0 1 
0 1 0 0 0 1 0 0 0 1 1 0 0 0 0 0 1 0 1 1 1 0 0 0 0 0 0 0 0 0 
1 0 0 0 1 1 1 1 0 0 0 0 0 0 0 0 0 1 0 0 0 0 0 0 0 0 0 0 0 0 
0 0 1 1 0 0 0 1 1 0 1 1 0 0 0 0 0 0 0 0 0 0 0 0 0 0 0 1 1 0 
0 0 0 1 1 1 1 0 0 0 0 0 0 0 0 0 0 0 0 1 1 0 0 0 0 0 0 0 0 0 
0 0 0 0 1 0 0 0 1 0 0 0 0 0 0 1 1 0 0 0 0 0 0 0 0 0 0 0 0 0 
1 1 0 0 0 0 0 0 0 1 0 0 0 0 1 0 0 1 1 0 0 0 0 0 0 0 0 1 0 1 
0 1 0 0 1 0 0 0 0 0 0 1 1 0 0 1 0 0 0 0 0 0 0 1 1 0 1 0 0 1 
0 0 1 1 0 0 0 0 0 0 0 0 0 0 0 0 0 0 0 0 0 0 0 0 0 0 0 0 0 1 
1 0 1 0 0 0 1 0 0 0 1 0 0 0 0 0 0 0 0 0 0 0 0 1 1 0 0 1 0 0 
0 1 1 0 0 0 0 0 0 0 0 0 1 0 0 0 0 0 0 0 0 0 0 1 0 1 1 1 1 0 
0 0 0 0 0 0 0 0 0 1 1 0 0 0 0 0 0 0 0 0 0 0 0 0 1 1 1 1 0 0 
0 0 0 0 0 0 0 0 1 0 0 0 0 1 0 0 0 0 0 0 0 0 0 0 1 0 0 0 0 0 
1 1 1 0 0 0 0 0 1 0 0 1 1 1 0 0 0 0 0 0 0 1 1 0 0 0 0 1 0 0 
1 0 0 1 0 1 0 0 0 0 0 0 0 1 1 1 0 0 1 1 1 0 0 1 0 0 0 0 0 0 
0 0 0 0 0 0 0 0 0 0 0 0 1 0 0 0 1 1 1 1 0 0 1 1 0 1 1 0 0 0 
0 1 1 1 0 0 0 1 1 0 0 0 0 0 0 0 0 0 0 1 0 0 0 0 0 0 0 0 0 0 
0 0 0 1 1 1 0 0 0 0 0 0 0 1 0 0 0 0 0 0 0 1 1 0 0 0 0 0 0 0 
0 0 0 0 0 0 0 0 0 0 0 0 0 0 0 0 0 0 0 0 0 0 0 0 0 1 0 1 1 0 
0 0 1 0 0 1 0 0 0 0 0 0 0 0 1 1 0 1 0 0 0 0 0 0 0 0 0 0 0 0 
0 1 0 0 0 0 0 0 0 0 0 0 1 0 0 0 0 0 0 0 0 0 0 0 0 0 0 1 0 0 
0 0 0 0 0 0 0 0 1 1 1 0 0 0 0 0 0 0 0 0 0 0 0 0 0 0 0 0 1 0 
0 0 0 0 0 0 0 0 0 0 0 0 1 1 0 0 0 0 0 0 0 0 0 0 0 0 0 1 0 0 
0 0 0 0 0 0 0 0 1 0 0 1 1 0 0 0 0 0 1 1 1 1 1 1 0 0 0 0 0 0 
0 0 0 0 0 0 0 0 0 0 0 0 0 0 0 0 1 1 0 0 0 0 1 0 0 0 0 0 0 0 
0 0 0 1 0 1 0 0 0 0 0 0 0 0 1 1 0 0 0 0 0 0 1 0 0 0 0 0 0 0 
1 1 0 0 1 1 0 0 0 0 0 0 0 0 0 0 0 0 0 1 0 0 0 0 1 0 0 0 1 1 
1 0 0 0 0 0 0 1 0 1 0 0 1 0 1 1 1 1 0 1 0 0 0 0 1 1 0 1 1 1 


SCALARS sensitivity_number float
LOOKUP_TABLE default
0.12463955838783324 0.13473755702796628 0.14491177339304323 0.13480617419371482 0.14498231613194917 0.06167600916806023 
1.1189400892098482e-06 0.0351039478719663 0.00868920290929378 0.06141551827473067 0.04530844128326571 0.016286630881219878 
0.12030684335996418 2.2046760443856615e-08 1.61469603407574e-08 2.928904051426182e-08 2.2790446751259303e-08 0.07654187181016946 
0.009453399899635442 1.1277434937121151e-06 1.1685830039398807e-06 1.1527658095736314e-06 1.1341212363260611e-06 1.1274427934854656e-06 
1.1439769974999587e-06 1.1210265073364716e-06 1.1463426254036356e-06 1.1940926369674387e-07 7.570855922091175e-07 0.009535947688382795 
7.16817013877911e-07 6.410094574823293e-07 6.781394038881878e-07 0.05429754354143654 6.965818755811094e-07 0.04043838183163295 
6.92502482961403e-07 2.3304142980453778e-07 6.858502198523971e-07 0.09569957911549129 7.74172682259579e-07 8.192171187556781e-07 
7.28439356477846e-07 0.07191955865919955 0.10644983073336609 6.786444223330177e-07 7.699529193816888e-07 7.224654174458088e-07 
8.688922338933477e-07 0.047427661032261356 0.025310354995862306 8.148004392937698e-07 0.08780482468317247 0.13288902655814022 
0.12663750892643671 0.1225637468910243 0.12075572080812898 0.12473456677012172 0.14496361196661903 0.13478101328661543 
0.15505686029638055 0.09854798445486423 0.06275531431688301 1.3306661617732373e-06 1.3617973014672567e-06 1.3513743234895872e-06 
1.3861305843272884e-06 1.3689561568124847e-06 1.4034771089641841e-06 1.421429507453536e-06 1.4599035931754857e-06 1.4402706772455236e-06 
1.4994768465611704e-06 1.4803342186194946e-06 1.5208665399075968e-06 1.5358607080484337e-06 1.593343472422457e-06 1.592393397238802e-06 
0.08000625510923384 0.09149119794887468 0.12676672219526952 0.1295649323269582 0.10387636542668446 0.22314789650084876 
0.36957450739127207 0.3735159592370988 0.1198240978598329 0.119828208457098 0.11980897375225065 0.11980714729275958 
0.11978305474923541 0.11982838757688635 0.119764806008888 0.12027220086759495 0.12147333081954287 0.12672411518047422 
0.12368945192600525 0.1303174682455468 0.13363717192944374 0.1364160541789188 0.13816473754489306 0.1391003116037277 
0.1396224220528682 0.13950479318947376 0.1395782955985719 0.1396175303896079 0.13953425907572917 0.1394969315275559 
0.1394313295073322 0.13946465160134394 0.13934571788715022 0.13939164968173084 0.13930884186704492 0.13934145665738892 
0.14015100461209662 0.1395513669628804 0.14362917896692692 0.14142621173008363 0.14683165032856604 0.15083140980136256 
0.159797474379746 0.15525447153759883 0.17011037921983216 0.1645614143389729 0.17737770984759682 0.1870513719636492 
0.20899368698055965 0.1984288711934427 0.2162945325832422 0.21513625913317486 0.21076865066900125 0.198317400341153 
0.15194008400519243 0.1772063432046639 0.11181718771601808 0.12915713100063464 0.09744093492525706 0.08551195655174922 
0.07790027390014066 0.07825497837861656 0.09032689407249705 0.08375217038482546 0.09367276726183488 0.09933897148497117 
0.11163184850519829 0.10946550971039119 0.1114337649006997 0.11222734934568608 0.1102652894241354 0.10883260111992445 
0.10034880394075829 0.1007982029666749 0.10731192696764168 0.10724288244768382 0.10742632309395342 0.10674039802556111 
0.10557291719906518 0.10614782313243164 0.10446013284959232 0.10502048305762193 0.10390166665225763 0.10334294608311131 
0.1022259679738823 0.10278442401733524 0.10184174207548108 0.10188025661667406 0.10214211656456249 0.10262598117995986 
0.10359352455699607 0.10310978361304382 0.10456085880771658 0.10407720453054366 0.10504424283138165 0.10552810871809765 
0.10601205132874976 0.10650210070179787 0.10691912344186118 0.10792329376284268 0.10802822454759853 0.1061635755050075 
0.10725465666244555 0.1135761480743776 0.23454457972879258 0.1961547531166159 0.23119081059564567 0.10445478336505919 
0.15126497660716587 0.06195464752637759 0.020668614283340964 2.0993614331330854e-07 2.4292642118693727e-07 1.7529008361117817e-07 
1.603815390947919e-07 1.451553079123752e-07 1.1935612199586946e-07 1.3212419414761954e-07 1.071904026357735e-07 9.5525639132508e-08 
8.439790405098369e-08 6.382443544345197e-08 7.383919008904531e-08 5.4448617591260106e-08 4.576128549250571e-08 3.03411490003951e-08 
3.77226503802066e-08 2.366141390476174e-08 1.2544405208702989e-08 1.7719341629154286e-08 8.166728757708498e-09 5.006108068743937e-09 
2.5842861913758704e-09 1.460478778754251e-09 1.3677749685087227e-09 0.4119927398558752 0.3475953274949566 0.37926138192959213 
0.3324244551483505 0.3143745213851924 0.2715639506292998 0.29442737259658097 0.24681903746237316 0.2215738771296086 
0.19734569208011418 0.17533107625760858 0.15602205147531178 0.12475673023467607 0.13928058363047874 0.1119919242420266 
0.1008272105393162 0.09117402472387832 0.07581134264504177 0.08281104482948286 0.07021534023963363 0.06592991950565821 
0.06290909706456496 0.06351775196034375 0.061601107735271124 0.06812243769122804 0.0632567585769465 0.07635383979049049 
0.06722371116617074 0.07834303287380688 0.07283456612272306 0.06706041787149561 0.06306591823474629 0.06496033501299549 
0.063053712505712 0.06779632524055712 0.07056087998835765 0.07315202486668126 0.07813110568212696 0.07564629110159377 
0.08062230962181471 0.08312059203807709 0.08562255448028656 0.09063043569513661 0.08812616071358512 0.09313510709328618 
0.09564030525980705 0.09825248799828579 0.104634983689605 0.10128183114841371 0.1083359798660221 0.11205143285030103 
0.11586364766759057 0.12463540033661841 0.11996283200540406 0.12989712457625738 0.1351907246601427 0.13915382182387281 
0.1382437067539956 0.14066010002237753 0.13145707369360662 0.11977922986062185 0.10624212645236754 0.06933870321982678 
0.09126564145861997 0.0499845912530726 0.013416011561381204 1.5034500299978845e-07 1.398600083869243e-07 1.296557741358341e-07 
1.4730765204620702e-07 1.4294351530989463e-07 1.4134699931508114e-07 1.4013952060524082e-07 1.4099252076988257e-07 1.3926762705146185e-07 
1.39600810154625e-07 1.399166007286959e-07 1.3841359625748007e-07 1.3968804816553138e-07 1.3591855323598278e-07 1.3164299712229766e-07 
1.2544616040660914e-07 1.0748154458113259e-07 1.1730771870175668e-07 9.63774619680162e-08 8.457365740918237e-08 6.122892769414339e-08 
7.26523383327407e-08 5.059540544972311e-08 4.103694897611917e-08 2.5155387727773147e-08 3.26078244701834e-08 1.3054116675754065e-08 
1.8634889468773764e-08 8.415058444190865e-09 5.103255635065632e-09 1.4630827737209748e-09 2.6142133906313967e-09 0.1131929378645162 
0.12463330859046609 0.06977353616223096 0.08521457209235607 0.0779626027779989 0.08701154794368213 0.09595572288063091 
0.09445812264995047 0.11714133773368801 0.12888625479033072 0.08264056560031809 0.006611707633002276 1.3763092924880519e-07 
1.3923455812563389e-07 1.199976257832488e-07 5.756974838537377e-08 6.66019173368892e-08 0.2506072039525168 0.12469919431002847 
0.12469306267744996 0.06495978190418467 0.1012859071352112 1.5618836056046585e-08 0.299373673480983 0.31406649642873086 
0.14493800841950277 0.1550660959297225 0.1276311837171806 0.13038751079424835 6.883592959534957e-09 0.10280020638321598 
0.09352199643427948 0.09745419309026565 0.09904718285104566 1.374120880441082e-07 1.3702987967134298e-07 0.13473544657646117 
0.05652492555009626 0.10518715045349705 1.347276370147974e-06 0.06805390416636087 0.12465632829795133 0.12449405598145978 
0.12535844795365889 0.1346623160418225 0.1328402477224938 0.07018421344348495 0.07084042699222041 0.0705779972726471 
0.18540542034507324 0.12207437668952904 0.046212931181460686 0.010397140902886036 1.5698159847112787e-07 1.7086100954940552e-07 
1.445761910243992e-07 1.3219659482829214e-07 8.631470687122502e-08 7.619332175365781e-08 4.9075533684706483e-08 2.7215625180143122e-08 
2.1108412580014786e-08 0.33596770633050493 0.33084262105202766 0.2855228971638884 0.2693505153102035 0.1682957169889555 
0.18734153512655763 0.1517068773922178 0.1373451348790856 0.06778525069994462 0.06764679987660199 0.07177797179184303 
0.07434588164446422 0.07570246177892198 0.07558370849167682 0.08405622383958426 0.08554544790260679 0.0914652791924545 
0.09296111424004247 0.11142829418203073 0.11415085759790022 0.12815512795592243 0.12975747097918744 0.1075138526576067 
0.09598337371598334 0.03254821384185629 0.019419585849047658 1.5282281342961146e-07 1.4400111092357777e-07 1.229103356185705e-07 
9.65503293199185e-08 8.562200374855177e-08 5.3742467600757693e-08 4.4567573969187485e-08 6.982679413106687e-09 0.13556713462303194 
0.06997338677420152 0.07848548781603486 0.10878273757207414 0.12477367692607243 1.2850553213782872e-07 0.07863430979377659 
0.08245045207442482 0.1176187676312681 0.052799676138776556 0.08997250215217227 1.5468231949926642e-07 9.696467688369217e-08 
0.14259482045607444 0.15353002752923092 6.379066190029337e-08 1.3644492375930652e-06 0.07103380004156258 0.10020068534798955 
3.39132348375085e-08 2.8732168750445654e-08 1.333134645705254e-06 1.0674853439882746e-07 1.1053883679940736e-08 1.6840626647414607e-08 
1.3551909550931032e-06 1.3812309105750296e-06 1.4158145326881277e-06 1.3982057074536673e-06 1.4538628885224675e-06 1.4343644123635686e-06 
1.4744055324747602e-06 1.4943516922088905e-06 1.5338897254326186e-06 1.516541184275218e-06 1.5851855846749647e-06 1.5946806985254366e-06 
0.12527672723086442 0.1391611298995543 0.10322401777305962 0.2337759659381268 0.1246593781890459 0.12418155687416346 
0.12387121598326051 0.12412368985184859 0.13585166922224967 0.13580992975950332 0.13587297662999806 0.1356985728429012 
0.13574519533288784 0.13566923780015624 0.13565149735389467 0.1356249269719247 0.13563861954600961 0.13557553558817895 
0.13560509458148567 0.13553587825886695 0.1355023763834344 0.13576864757683163 0.13553146135263122 0.13788655819594578 
0.13645207856656927 0.1402358602799566 0.14327090773055054 0.14932513833896746 0.14646285482941943 0.1538079904337915 
0.15170347284398814 0.15664596375173923 0.1611666849126927 0.17427917289187422 0.16768463722918941 0.1783469832851578 
0.17897105974255126 0.17317150711124094 0.16246993328796513 0.13409135093925448 0.1485722719820349 0.10701728635620844 
0.11998015797376939 0.0950869789056615 0.08354661057847991 0.07102914073330845 0.07452562760505593 0.08082281326306061 
0.07403102178973606 0.08379608915331553 0.08284244948754575 0.0730882844235058 0.07176216720810724 0.0724732908664916 
0.07300731009322431 0.07218632131569612 0.07283410527032909 0.08241728661896294 0.08304735223353518 0.07046999391014408 
0.0719640739933846 0.07029003374464096 0.06965939040674665 0.06906195141307506 0.06940857073097133 0.06842988128213648 
0.06875032574080897 0.06811177230210917 0.06779309943671342 0.06715622430938695 0.06747466059369535 0.06700761261726124 
0.06697317169261893 0.06724943904992876 0.0676164663752005 0.06835037814745068 0.06798344647539235 0.06908415217238079 
0.0687172579221144 0.06945093382580873 0.0698169043997743 0.07647179776099272 0.09264079935409723 0.08486223273208607 
0.11291661538712008 1.8888233279577715e-07 1.0819450755819415e-07 4.119779570070181e-08 1.0796980590166215e-08 2.3712191193057082e-09 
4.070141498591387e-09 0.20824755827862088 0.22982808042247377 0.08548522095319465 0.07881613239630342 0.07364916167434907 
0.07377544259631368 0.08288069637667708 0.08046534211610593 0.08848665172378413 0.10104497195136229 0.10342893932059082 
0.10611830352215373 0.12075500181262153 0.12503951349566403 0.057210807974225834 1.5006147790077265e-07 1.3618847452650446e-07 
1.348811139809378e-07 1.3241835864738942e-07 1.1565113398782978e-07 7.454054189452664e-08 3.621493219956621e-08 4.094387840485558e-09 
0.16626635777194507 0.18008799002638748 9.759351280658792e-08 6.037227503084257e-08 1.4590436625783832e-06 1.0616691769625991e-07 
1.096630308680651e-07 0.03385736183251695 0.033726970039203545 6.942098170399627e-08 7.575981018411633e-08 6.73736233379747e-08 
0.13484106577357574 0.24079568941906404 0.0917560224244185 1.5792673065495076e-06 1.3318241704491364e-07 0.20597625358493502 
0.21615822482152558 7.181518481635985e-09 1.1566218175738939e-08 0.03398785573640665 1.3370231024076903e-06 5.610627738729204e-08 
0.09820160564544526 0.1007659957339095 1.308523799383895e-07 1.132760730478263e-07 1.1860060569780246e-07 8.829099985396681e-08 
7.879606099314713e-08 5.180120221797207e-08 0.009660022065987204 0.04331192375057261 0.13321670967119273 0.08179055774042983 
0.10485772477396234 0.10627621302881507 0.10557088187895952 0.10309914951880274 0.10234590247202446 0.10806750891369883 
0.10014722862838323 0.04558359973918854 1.5609662659371254e-07 1.2177145495363585e-07 1.4798936339045828e-06 1.5048607694012127e-06 
6.40970570823908e-08 7.254905712706675e-08 0.0903147382998226 0.09575169136663017 1.6580795908186733e-08 2.2234538682638935e-08 
0.23046471158875642 0.23767996431051927 0.15504828636786697 0.13109398827218258 1.1482030738493321e-08 0.0565247656448976 
0.10516861031134914 0.05869781554704211 1.5870355328707746e-06 0.13372351359245177 0.13456127989363842 0.12923975280445735 
0.13064438005120066 0.033463794925525585 0.033596038668814596 0.03321393859523536 0.033350983908500914 0.058733921133812914 
1.5408626298681122e-07 1.610253380233078e-07 1.43614156520397e-07 9.05701412400401e-08 8.138470303703432e-08 3.4692441707680465e-08 
2.829214366567556e-08 0.22396407787366618 0.07677593056654615 0.0781063137079731 0.10284570837745935 0.10664124190386795 
0.101150170177132 0.10386167955020195 0.10684205776208247 0.10621420487000438 0.10370711091787985 0.10244078503015375 
0.10251844845486438 0.10580289839858827 0.10711993496912246 0.10598131270432111 0.10290369627787115 0.06832412170118432 
0.04960338303058604 1.6376029769784418e-07 0.12972203622898998 0.12880393896560988 0.07745798316035281 0.07999035140765139 