# vtk DataFile Version 3.0
Results from optimization
ASCII
DATASET UNSTRUCTURED_GRID

POINTS 3131 float
0.0 0.0 0.0 0.0 30.0 0.0 
100.0 0.0 0.0 100.0 30.0 0.0 
0.0 1.0 0.0 0.0 2.0 0.0 
0.0 3.0 0.0 0.0 4.0 0.0 
0.0 5.0 0.0 0.0 6.0 0.0 
0.0 7.0 0.0 0.0 8.0 0.0 
0.0 9.0 0.0 0.0 10.0 0.0 
0.0 11.0 0.0 0.0 12.0 0.0 
0.0 13.0 0.0 0.0 14.0 0.0 
0.0 15.0 0.0 0.0 16.0 0.0 
0.0 17.0 0.0 0.0 18.0 0.0 
0.0 19.0 0.0 0.0 20.0 0.0 
0.0 21.0 0.0 0.0 22.0 0.0 
0.0 23.0 0.0 0.0 24.0 0.0 
0.0 25.0 0.0 0.0 26.0 0.0 
0.0 27.0 0.0 0.0 28.0 0.0 
0.0 29.0 0.0 1.0 0.0 0.0 
2.0 0.0 0.0 3.0 0.0 0.0 
4.0 0.0 0.0 5.0 0.0 0.0 
6.0 0.0 0.0 7.0 0.0 0.0 
8.0 0.0 0.0 9.0 0.0 0.0 
10.0 0.0 0.0 11.0 0.0 0.0 
12.0 0.0 0.0 13.0 0.0 0.0 
14.0 0.0 0.0 15.0 0.0 0.0 
16.0 0.0 0.0 17.0 0.0 0.0 
18.0 0.0 0.0 19.0 0.0 0.0 
20.0 0.0 0.0 21.0 0.0 0.0 
22.0 0.0 0.0 23.0 0.0 0.0 
24.0 0.0 0.0 25.0 0.0 0.0 
26.0 0.0 0.0 27.0 0.0 0.0 
28.0 0.0 0.0 29.0 0.0 0.0 
30.0 0.0 0.0 31.0 0.0 0.0 
32.0 0.0 0.0 33.0 0.0 0.0 
34.0 0.0 0.0 35.0 0.0 0.0 
36.0 0.0 0.0 37.0 0.0 0.0 
38.0 0.0 0.0 39.0 0.0 0.0 
40.0 0.0 0.0 41.0 0.0 0.0 
42.0 0.0 0.0 43.0 0.0 0.0 
44.0 0.0 0.0 45.0 0.0 0.0 
46.0 0.0 0.0 47.0 0.0 0.0 
48.0 0.0 0.0 49.0 0.0 0.0 
50.0 0.0 0.0 51.0 0.0 0.0 
52.0 0.0 0.0 53.0 0.0 0.0 
54.0 0.0 0.0 55.0 0.0 0.0 
56.0 0.0 0.0 57.0 0.0 0.0 
58.0 0.0 0.0 59.0 0.0 0.0 
60.0 0.0 0.0 61.0 0.0 0.0 
62.0 0.0 0.0 63.0 0.0 0.0 
64.0 0.0 0.0 65.0 0.0 0.0 
66.0 0.0 0.0 67.0 0.0 0.0 
68.0 0.0 0.0 69.0 0.0 0.0 
70.0 0.0 0.0 71.0 0.0 0.0 
72.0 0.0 0.0 73.0 0.0 0.0 
74.0 0.0 0.0 75.0 0.0 0.0 
76.0 0.0 0.0 77.0 0.0 0.0 
78.0 0.0 0.0 79.0 0.0 0.0 
80.0 0.0 0.0 81.0 0.0 0.0 
82.0 0.0 0.0 83.0 0.0 0.0 
84.0 0.0 0.0 85.0 0.0 0.0 
86.0 0.0 0.0 87.0 0.0 0.0 
88.0 0.0 0.0 89.0 0.0 0.0 
90.0 0.0 0.0 91.0 0.0 0.0 
92.0 0.0 0.0 93.0 0.0 0.0 
94.0 0.0 0.0 95.0 0.0 0.0 
96.0 0.0 0.0 97.0 0.0 0.0 
98.0 0.0 0.0 99.0 0.0 0.0 
100.0 1.0 0.0 100.0 2.0 0.0 
100.0 3.0 0.0 100.0 4.0 0.0 
100.0 5.0 0.0 100.0 6.0 0.0 
100.0 7.0 0.0 100.0 8.0 0.0 
100.0 9.0 0.0 100.0 10.0 0.0 
100.0 11.0 0.0 100.0 12.0 0.0 
100.0 13.0 0.0 100.0 14.0 0.0 
100.0 15.0 0.0 100.0 16.0 0.0 
100.0 17.0 0.0 100.0 18.0 0.0 
100.0 19.0 0.0 100.0 20.0 0.0 
100.0 21.0 0.0 100.0 22.0 0.0 
100.0 23.0 0.0 100.0 24.0 0.0 
100.0 25.0 0.0 100.0 26.0 0.0 
100.0 27.0 0.0 100.0 28.0 0.0 
100.0 29.0 0.0 1.0 30.0 0.0 
2.0 30.0 0.0 3.0 30.0 0.0 
4.0 30.0 0.0 5.0 30.0 0.0 
6.0 30.0 0.0 7.0 30.0 0.0 
8.0 30.0 0.0 9.0 30.0 0.0 
10.0 30.0 0.0 11.0 30.0 0.0 
12.0 30.0 0.0 13.0 30.0 0.0 
14.0 30.0 0.0 15.0 30.0 0.0 
16.0 30.0 0.0 17.0 30.0 0.0 
18.0 30.0 0.0 19.0 30.0 0.0 
20.0 30.0 0.0 21.0 30.0 0.0 
22.0 30.0 0.0 23.0 30.0 0.0 
24.0 30.0 0.0 25.0 30.0 0.0 
26.0 30.0 0.0 27.0 30.0 0.0 
28.0 30.0 0.0 29.0 30.0 0.0 
30.0 30.0 0.0 31.0 30.0 0.0 
32.0 30.0 0.0 33.0 30.0 0.0 
34.0 30.0 0.0 35.0 30.0 0.0 
36.0 30.0 0.0 37.0 30.0 0.0 
38.0 30.0 0.0 39.0 30.0 0.0 
40.0 30.0 0.0 41.0 30.0 0.0 
42.0 30.0 0.0 43.0 30.0 0.0 
44.0 30.0 0.0 45.0 30.0 0.0 
46.0 30.0 0.0 47.0 30.0 0.0 
48.0 30.0 0.0 49.0 30.0 0.0 
50.0 30.0 0.0 51.0 30.0 0.0 
52.0 30.0 0.0 53.0 30.0 0.0 
54.0 30.0 0.0 55.0 30.0 0.0 
56.0 30.0 0.0 57.0 30.0 0.0 
58.0 30.0 0.0 59.0 30.0 0.0 
60.0 30.0 0.0 61.0 30.0 0.0 
62.0 30.0 0.0 63.0 30.0 0.0 
64.0 30.0 0.0 65.0 30.0 0.0 
66.0 30.0 0.0 67.0 30.0 0.0 
68.0 30.0 0.0 69.0 30.0 0.0 
70.0 30.0 0.0 71.0 30.0 0.0 
72.0 30.0 0.0 73.0 30.0 0.0 
74.0 30.0 0.0 75.0 30.0 0.0 
76.0 30.0 0.0 77.0 30.0 0.0 
78.0 30.0 0.0 79.0 30.0 0.0 
80.0 30.0 0.0 81.0 30.0 0.0 
82.0 30.0 0.0 83.0 30.0 0.0 
84.0 30.0 0.0 85.0 30.0 0.0 
86.0 30.0 0.0 87.0 30.0 0.0 
88.0 30.0 0.0 89.0 30.0 0.0 
90.0 30.0 0.0 91.0 30.0 0.0 
92.0 30.0 0.0 93.0 30.0 0.0 
94.0 30.0 0.0 95.0 30.0 0.0 
96.0 30.0 0.0 97.0 30.0 0.0 
98.0 30.0 0.0 99.0 30.0 0.0 
16.0 1.0 0.0 22.0 1.0 0.0 
28.0 1.0 0.0 34.0 1.0 0.0 
40.0 1.0 0.0 46.0 1.0 0.0 
52.0 1.0 0.0 58.0 1.0 0.0 
64.0 1.0 0.0 70.0 1.0 0.0 
76.0 1.0 0.0 82.0 1.0 0.0 
15.0 29.0 0.0 20.0 29.0 0.0 
25.0 29.0 0.0 30.0 29.0 0.0 
35.0 29.0 0.0 40.0 29.0 0.0 
45.0 29.0 0.0 50.0 29.0 0.0 
55.0 29.0 0.0 60.0 29.0 0.0 
65.0 29.0 0.0 70.0 29.0 0.0 
75.0 29.0 0.0 80.0 29.0 0.0 
99.0 13.0 0.0 85.0 29.0 0.0 
1.0 12.0 0.0 1.0 18.0 0.0 
99.0 18.0 0.0 88.0 1.0 0.0 
8.99999999994914 0.999999999973743 0.0 99.0 8.0 0.0 
8.0 29.0 0.0 89.0 29.0 0.0 
99.0 22.0 0.0 0.999995859328856 6.99995963616369 0.0 
1.0 23.0 0.0 93.0 1.0 0.0 
93.0 29.0 0.0 4.99897846844128 0.999401131561401 0.0 
99.0 4.0 0.0 99.0 25.0 0.0 
4.0 29.0 0.0 0.998018130894958 3.99456365118287 0.0 
96.0 29.0 0.0 1.0 27.0 0.0 
2.98755098591844 0.99220568858159 0.0 13.0 1.0 0.0 
97.0 1.0 0.0 99.0 27.0 0.0 
0.999999999429266 9.99999999116626 0.0 1.0 16.0 0.0 
20.0 1.0 0.0 26.0 1.0 0.0 
32.0 1.0 0.0 38.0 1.0 0.0 
44.0 1.0 0.0 50.0 1.0 0.0 
56.0 1.0 0.0 62.0 1.0 0.0 
68.0 1.0 0.0 74.0 1.0 0.0 
80.0 1.0 0.0 86.0 1.0 0.0 
99.0 15.0 0.0 10.0 29.0 0.0 
17.0 29.0 0.0 22.0 29.0 0.0 
27.0 29.0 0.0 32.0 29.0 0.0 
37.0 29.0 0.0 42.0 29.0 0.0 
47.0 29.0 0.0 52.0 29.0 0.0 
57.0 29.0 0.0 62.0 29.0 0.0 
67.0 29.0 0.0 72.0 29.0 0.0 
77.0 29.0 0.0 82.0 29.0 0.0 
0.982043965477184 1.98304218642421 0.0 1.0 29.0 0.0 
99.0 1.0 0.0 99.0 29.0 0.0 
0.983223912217958 0.987621281485569 0.0 0.999949380687591 5.99961944502072 0.0 
0.999999970537249 8.99999955168247 0.0 1.0 14.0 0.0 
1.0 20.0 0.0 1.0 22.0 0.0 
1.0 25.0 0.0 6.99998134409618 0.99999175922936 0.0 
10.9999999999491 0.999999999973743 0.0 15.0 1.0 0.0 
18.0 1.0 0.0 24.0 1.0 0.0 
30.0 1.0 0.0 36.0 1.0 0.0 
42.0 1.0 0.0 48.0 1.0 0.0 
54.0 1.0 0.0 60.0 1.0 0.0 
66.0 1.0 0.0 72.0 1.0 0.0 
78.0 1.0 0.0 84.0 1.0 0.0 
90.0 1.0 0.0 92.0 1.0 0.0 
95.0 1.0 0.0 99.0 2.0 0.0 
99.0 5.0 0.0 99.0 6.0 0.0 
99.0 9.0 0.0 99.0 10.0 0.0 
99.0 11.0 0.0 99.0 16.0 0.0 
99.0 19.0 0.0 99.0 20.0 0.0 
99.0 23.0 0.0 2.0 29.0 0.0 
5.0 29.0 0.0 6.0 29.0 0.0 
11.0 29.0 0.0 12.0 29.0 0.0 
13.0 29.0 0.0 18.0 29.0 0.0 
23.0 29.0 0.0 28.0 29.0 0.0 
33.0 29.0 0.0 38.0 29.0 0.0 
43.0 29.0 0.0 48.0 29.0 0.0 
53.0 29.0 0.0 58.0 29.0 0.0 
63.0 29.0 0.0 68.0 29.0 0.0 
73.0 29.0 0.0 78.0 29.0 0.0 
83.0 29.0 0.0 86.0 29.0 0.0 
87.0 29.0 0.0 90.0 29.0 0.0 
91.0 29.0 0.0 94.0 29.0 0.0 
97.0 29.0 0.0 16.0 2.0 0.0 
22.0 28.0 0.0 27.0 28.0 0.0 
52.0 28.0 0.0 57.0 28.0 0.0 
82.0 28.0 0.0 32.0 28.0 0.0 
37.0 28.0 0.0 62.0 28.0 0.0 
67.0 28.0 0.0 42.0 28.0 0.0 
72.0 28.0 0.0 98.0 15.0 0.0 
12.0 28.0 0.0 98.0 19.0 0.0 
89.0 28.0 0.0 98.0 10.0 0.0 
1.99999999531953 9.999999928767 0.0 93.0 2.0 0.0 
2.0 23.0 0.0 98.0 22.0 0.0 
93.0 28.0 0.0 1.99998433821395 6.9998796865685 0.0 
98.0 5.0 0.0 5.0 28.0 0.0 
85.0 28.0 0.0 96.0 28.0 0.0 
1.98413137230705 0.988341966066793 0.0 0.993390117123437 2.98985247870427 0.0 
0.999537928146093 4.99813727245904 0.0 0.999998442801018 7.99998651096591 0.0 
0.999999999636129 10.9999999944437 0.0 1.0 13.0 0.0 
1.0 15.0 0.0 1.0 17.0 0.0 
1.0 19.0 0.0 1.0 21.0 0.0 
1.0 24.0 0.0 1.0 26.0 0.0 
1.0 28.0 0.0 3.99605406296194 0.997383435909015 0.0 
5.99977465143194 0.999865295129002 0.0 7.9999965299808 0.999998450318377 0.0 
9.99999999988557 0.999999999940923 0.0 11.9999999999936 0.999999999996718 0.0 
14.0 1.0 0.0 17.0 1.0 0.0 
19.0 1.0 0.0 21.0 1.0 0.0 
23.0 1.0 0.0 25.0 1.0 0.0 
27.0 1.0 0.0 29.0 1.0 0.0 
31.0 1.0 0.0 33.0 1.0 0.0 
35.0 1.0 0.0 37.0 1.0 0.0 
39.0 1.0 0.0 41.0 1.0 0.0 
43.0 1.0 0.0 45.0 1.0 0.0 
47.0 1.0 0.0 49.0 1.0 0.0 
51.0 1.0 0.0 53.0 1.0 0.0 
55.0 1.0 0.0 57.0 1.0 0.0 
59.0 1.0 0.0 61.0 1.0 0.0 
63.0 1.0 0.0 65.0 1.0 0.0 
67.0 1.0 0.0 69.0 1.0 0.0 
71.0 1.0 0.0 73.0 1.0 0.0 
75.0 1.0 0.0 77.0 1.0 0.0 
79.0 1.0 0.0 81.0 1.0 0.0 
83.0 1.0 0.0 85.0 1.0 0.0 
87.0 1.0 0.0 89.0 1.0 0.0 
91.0 1.0 0.0 94.0 1.0 0.0 
96.0 1.0 0.0 98.0 1.0 0.0 
99.0 3.0 0.0 99.0 7.0 0.0 
99.0 12.0 0.0 99.0 14.0 0.0 
99.0 17.0 0.0 99.0 21.0 0.0 
99.0 24.0 0.0 99.0 26.0 0.0 
99.0 28.0 0.0 3.0 29.0 0.0 
7.0 29.0 0.0 9.0 29.0 0.0 
14.0 29.0 0.0 16.0 29.0 0.0 
19.0 29.0 0.0 21.0 29.0 0.0 
24.0 29.0 0.0 26.0 29.0 0.0 
29.0 29.0 0.0 31.0 29.0 0.0 
34.0 29.0 0.0 36.0 29.0 0.0 
39.0 29.0 0.0 41.0 29.0 0.0 
44.0 29.0 0.0 46.0 29.0 0.0 
49.0 29.0 0.0 51.0 29.0 0.0 
54.0 29.0 0.0 56.0 29.0 0.0 
59.0 29.0 0.0 61.0 29.0 0.0 
64.0 29.0 0.0 66.0 29.0 0.0 
69.0 29.0 0.0 71.0 29.0 0.0 
74.0 29.0 0.0 76.0 29.0 0.0 
79.0 29.0 0.0 81.0 29.0 0.0 
84.0 29.0 0.0 88.0 29.0 0.0 
92.0 29.0 0.0 95.0 29.0 0.0 
98.0 29.0 0.0 98.0 8.0 0.0 
10.0 28.0 0.0 86.0 28.0 0.0 
90.0 28.0 0.0 22.0 2.0 0.0 
28.0 2.0 0.0 34.0 2.0 0.0 
40.0 2.0 0.0 46.0 2.0 0.0 
52.0 2.0 0.0 58.0 2.0 0.0 
64.0 2.0 0.0 70.0 2.0 0.0 
76.0 2.0 0.0 82.0 2.0 0.0 
2.0 16.0 0.0 85.0 27.0 0.0 
88.0 2.0 0.0 11.9999999999928 1.99999999999631 0.0 
89.0 27.0 0.0 8.99999961400676 1.99999982348209 0.0 
5.9997075717904 1.99979502371096 0.0 1.99934767917968 4.99734291783241 0.0 
16.0 28.0 0.0 46.0 28.0 0.0 
76.0 28.0 0.0 2.0 27.0 0.0 
3.99556896721827 1.99618513026716 0.0 97.0 2.0 0.0 
2.0 20.0 0.0 94.0 28.0 0.0 
24.0 28.0 0.0 29.0 28.0 0.0 
34.0 28.0 0.0 39.0 28.0 0.0 
54.0 28.0 0.0 59.0 28.0 0.0 
64.0 28.0 0.0 69.0 28.0 0.0 
98.0 12.0 0.0 7.0 28.0 0.0 
98.0 24.0 0.0 97.0 28.0 0.0 
20.0 2.0 0.0 26.0 2.0 0.0 
32.0 2.0 0.0 38.0 2.0 0.0 
44.0 2.0 0.0 50.0 2.0 0.0 
56.0 2.0 0.0 62.0 2.0 0.0 
68.0 2.0 0.0 74.0 2.0 0.0 
80.0 2.0 0.0 86.0 2.0 0.0 
1.99999981323511 8.99999805583899 0.0 2.0 14.0 0.0 
91.0 2.0 0.0 98.0 20.0 0.0 
18.0 28.0 0.0 48.0 28.0 0.0 
78.0 28.0 0.0 83.0 28.0 0.0 
87.0 28.0 0.0 91.0 28.0 0.0 
98.0 7.0 0.0 14.0 28.0 0.0 
20.0 28.0 0.0 25.0 28.0 0.0 
30.0 28.0 0.0 35.0 28.0 0.0 
40.0 28.0 0.0 44.0 28.0 0.0 
50.0 28.0 0.0 55.0 28.0 0.0 
60.0 28.0 0.0 65.0 28.0 0.0 
70.0 28.0 0.0 74.0 28.0 0.0 
80.0 28.0 0.0 98.0 13.0 0.0 
1.99999999996321 11.9999999994391 0.0 2.0 18.0 0.0 
98.0 17.0 0.0 98.0 18.0 0.0 
8.0 28.0 0.0 98.0 3.0 0.0 
98.0 4.0 0.0 98.0 25.0 0.0 
3.0 28.0 0.0 4.0 28.0 0.0 
1.9971839117747 3.993137435461 0.0 1.98608618048036 1.98526975763388 0.0 
14.0 2.0 0.0 98.0 26.0 0.0 
98.0 27.0 0.0 1.99983949066551 5.99923056007149 0.0 
2.0 22.0 0.0 2.0 25.0 0.0 
7.99999502590895 1.99999772908988 0.0 10.9999999997687 1.99999999988056 0.0 
15.0 2.0 0.0 18.0 2.0 0.0 
[...]
CELL_DATA 3000

SCALARS element_states float
LOOKUP_TABLE default
1 1 1 1 1 1 1 1 1 1 1 1 1 0 0 0 0 1 1 1 1 1 1 1 1 1 1 1 1 1 
1 1 1 1 1 1 1 1 1 1 1 0 1 1 1 0 0 0 0 1 1 0 1 1 1 1 1 1 1 1 
1 1 1 1 1 1 1 1 1 0 0 0 0 0 0 1 1 1 1 1 1 1 1 1 1 1 1 1 1 1 
1 1 1 1 1 1 1 1 1 1 1 1 1 1 1 1 1 1 1 1 1 1 1 1 1 1 1 1 1 1 
1 1 1 1 1 1 1 1 1 1 1 1 1 1 1 1 1 1 1 1 1 1 1 1 1 1 1 1 1 1 
1 1 1 1 1 1 1 1 1 1 1 1 1 1 1 1 1 1 1 1 1 1 1 1 1 1 1 1 1 1 
1 1 1 1 1 1 1 1 1 1 1 1 1 0 0 0 0 0 0 0 0 0 0 0 0 0 0 0 0 0 
0 0 0 1 1 1 1 1 1 1 1 1 1 1 1 1 1 1 1 1 1 1 1 1 1 1 1 1 1 1 
1 1 1 1 1 1 1 1 1 1 1 1 1 1 1 1 1 1 1 1 1 1 1 1 1 1 1 1 1 1 
1 1 1 1 1 1 1 1 1 1 1 1 1 1 1 1 1 1 1 0 0 0 0 0 0 0 0 0 0 0 
0 0 0 0 0 0 0 0 0 0 0 1 1 1 1 1 1 1 1 1 1 1 1 1 1 0 0 0 1 1 
1 1 1 0 1 1 1 1 1 1 0 1 1 1 1 1 1 1 1 1 1 1 1 1 1 1 1 1 1 1 
1 1 1 1 1 1 0 0 0 0 0 0 0 1 1 1 1 1 1 1 1 1 1 1 1 1 1 1 1 1 
1 1 1 1 1 1 1 1 1 1 1 0 0 0 0 0 0 1 1 1 1 1 0 1 1 1 1 1 1 0 
1 1 0 1 1 1 0 0 1 0 0 0 1 1 0 1 0 0 0 0 1 0 1 1 1 1 1 1 1 1 
1 1 1 1 1 1 1 1 1 1 1 1 1 1 1 1 1 1 1 1 1 1 1 1 1 1 1 1 1 1 
1 1 1 1 1 1 1 1 1 1 1 1 1 1 1 1 1 1 1 1 1 1 1 1 1 1 1 1 1 1 
1 1 1 1 1 1 1 1 1 1 1 1 1 1 1 1 1 1 1 1 0 0 0 0 0 1 1 1 1 1 
1 1 1 1 1 1 1 1 1 1 1 1 0 0 0 0 0 0 1 1 0 0 0 0 0 1 1 0 0 0 
1 1 1 1 1 1 1 0 0 1 1 0 1 1 1 0 0 0 0 0 1 1 1 1 1 1 1 1 1 1 
1 1 1 0 0 0 0 0 1 1 0 0 1 1 1 1 0 1 1 1 1 1 1 1 1 1 1 1 1 1 
1 1 1 0 0 0 0 1 1 1 1 1 1 1 1 1 1 1 1 1 1 1 1 1 1 1 1 1 1 1 
1 1 1 1 1 1 0 1 1 1 1 1 1 1 1 1 1 1 1 1 0 0 1 1 1 1 1 1 0 0 
0 0 1 1 1 1 1 1 1 0 1 1 0 1 1 0 0 1 1 1 1 1 1 1 1 1 1 1 1 1 
1 1 1 1 0 0 1 0 0 0 1 1 1 1 1 1 1 1 1 1 1 1 1 1 1 1 1 1 1 1 
1 1 1 1 1 1 1 1 1 1 1 1 1 1 1 1 1 1 1 1 1 1 1 1 1 1 1 1 1 1 
1 1 1 1 1 1 1 1 1 1 1 1 1 1 1 1 1 1 1 1 1 1 1 1 1 1 1 1 1 1 
1 1 0 1 1 1 1 0 0 0 0 1 1 1 1 1 1 1 1 1 1 1 1 1 1 1 1 1 1 0 
1 1 1 1 1 1 1 1 1 1 1 1 1 1 1 1 1 1 1 1 0 0 0 0 0 1 1 1 1 1 
1 1 1 1 1 0 0 1 1 1 1 1 1 1 0 1 1 1 1 1 1 1 0 0 1 1 1 1 1 1 
0 0 0 0 1 1 1 0 0 1 0 1 1 1 0 1 1 1 1 1 1 1 0 1 1 1 1 1 1 0 
1 1 0 1 1 1 1 1 1 1 1 1 1 1 1 1 1 1 1 1 1 1 1 1 1 0 0 0 0 0 
0 0 1 1 0 0 0 1 1 1 1 1 1 1 1 1 1 1 1 1 1 1 1 1 1 1 1 1 1 1 
1 1 1 1 1 0 1 0 1 1 1 1 1 1 1 1 1 1 1 0 0 0 0 1 1 0 0 0 0 0 
1 1 1 1 0 0 0 1 1 1 1 1 1 0 1 1 0 1 1 1 1 1 1 1 0 1 1 1 1 1 
1 1 1 1 1 1 1 1 1 1 1 0 0 1 1 1 1 1 0 1 1 1 1 1 1 1 1 1 1 1 
1 1 1 1 1 1 1 1 1 1 1 1 1 1 1 1 1 1 1 1 1 1 1 1 1 1 1 0 0 0 
0 1 1 0 0 1 1 1 0 0 0 0 1 1 1 1 1 1 1 1 1 1 1 1 1 1 1 0 1 1 
1 1 1 1 1 1 1 1 1 1 1 1 1 1 1 0 0 0 1 1 1 1 1 0 1 1 1 1 1 1 
1 1 1 1 1 1 1 1 1 1 1 1 1 1 1 1 0 0 1 1 1 1 1 1 1 0 0 0 1 1 
1 1 1 1 1 1 1 1 1 1 1 1 1 1 1 1 1 1 1 1 0 0 0 0 0 0 1 1 1 1 
1 1 1 1 1 1 1 1 1 1 1 0 0 0 1 1 1 1 1 1 1 1 1 1 1 1 1 1 1 1 
1 1 1 1 1 1 1 1 1 0 1 1 1 1 1 1 0 1 1 1 1 1 1 1 1 1 0 0 0 0 
1 1 1 1 1 1 1 1 1 0 1 1 1 1 1 1 1 1 1 1 1 1 1 1 1 1 1 1 1 1 
1 1 0 0 0 0 1 0 1 0 1 1 1 1 1 1 1 1 1 1 1 1 1 1 1 1 1 1 1 1 
1 1 1 1 1 1 1 1 1 0 1 1 0 1 0 0 0 1 1 1 1 1 1 1 1 1 1 1 1 1 
0 0 1 1 1 1 1 1 1 1 1 1 1 1 1 1 1 1 1 1 1 1 1 1 0 0 1 1 1 0 
1 1 1 1 1 1 1 1 1 1 0 1 1 1 1 1 1 1 0 1 1 1 1 0 0 1 1 1 1 1 
1 1 1 1 1 1 1 1 1 1 0 0 1 1 1 1 1 1 1 1 0 0 0 1 1 1 1 1 0 0 
0 0 1 1 1 1 1 1 1 1 1 0 1 0 0 1 1 1 1 1 1 1 1 1 1 1 1 1 1 1 
1 1 1 1 1 1 1 1 1 1 1 1 1 1 1 1 1 1 1 1 1 1 1 1 1 1 1 1 1 1 
1 1 1 1 1 1 1 1 1 1 1 1 1 1 1 1 1 1 1 1 0 1 1 1 1 1 1 1 1 1 
1 1 1 1 1 1 1 1 1 1 1 1 1 1 1 0 1 1 1 1 1 0 0 1 1 1 1 1 1 1 
1 1 1 1 1 0 0 1 1 1 1 1 1 1 1 1 1 0 1 1 1 1 1 1 1 1 1 1 1 1 
0 0 1 1 0 0 1 1 1 1 1 1 1 1 1 1 1 1 0 1 1 1 1 1 1 1 1 1 1 1 
0 0 0 0 1 1 1 1 0 0 0 1 1 1 1 1 1 1 1 1 1 1 1 1 1 0 1 1 1 1 
1 1 1 1 1 1 0 1 1 1 1 1 1 1 1 1 1 1 1 0 0 1 1 1 1 1 1 1 1 1 
1 1 1 0 1 1 1 1 1 1 0 1 1 1 1 1 1 1 1 1 1 1 1 1 1 1 1 1 1 1 
1 1 1 1 1 1 1 1 1 1 0 1 1 1 1 1 1 1 1 1 1 1 1 0 0 1 0 1 0 1 
1 1 1 1 1 1 1 1 1 1 1 1 0 1 1 1 1 1 1 1 1 1 0 1 1 1 1 1 1 1 
1 1 1 1 1 1 1 1 1 1 1 1 1 1 1 1 1 1 1 1 1 1 1 1 1 1 1 1 1 1 
1 1 1 1 1 1 1 0 0 0 0 1 1 1 1 1 1 1 1 1 1 1 0 0 0 0 1 1 1 1 
1 1 1 1 1 1 1 1 1 1 1 1 1 1 1 0 1 0 0 1 1 1 1 1 1 1 1 1 1 0 
0 1 0 0 1 1 1 1 1 1 1 1 1 1 1 1 1 1 1 1 1 1 1 0 0 0 0 1 1 1 
1 1 0 0 1 1 1 1 1 1 1 1 0 0 1 1 1 1 1 1 1 0 1 1 1 1 1 1 1 1 
1 1 1 1 1 0 1 1 1 1 1 1 1 0 0 1 1 1 1 1 1 1 1 1 1 1 1 1 1 0 
1 1 0 0 1 1 1 1 1 1 1 1 1 1 1 1 1 1 1 1 1 1 1 1 0 0 1 1 1 1 
1 1 1 0 1 1 1 1 1 1 1 1 1 1 1 1 1 1 1 1 1 1 1 0 0 0 1 1 1 1 
0 1 1 1 1 1 1 1 1 1 1 1 1 1 1 1 1 1 1 1 1 1 1 1 1 0 1 1 1 1 
1 1 0 0 0 0 0 1 1 1 1 1 1 1 1 1 0 0 1 1 1 1 1 1 1 1 0 1 1 1 
1 1 1 1 1 1 1 1 1 1 1 1 1 0 1 0 1 1 1 1 1 1 0 1 1 0 1 1 1 1 
1 1 1 0 1 1 1 1 1 0 1 1 1 0 0 1 1 1 1 1 1 1 1 1 1 1 1 1 1 1 
1 1 1 1 1 1 1 1 0 0 1 1 1 1 1 1 1 1 1 1 0 0 1 1 1 0 1 1 1 1 
1 1 1 1 1 1 1 1 1 1 1 1 1 1 1 1 0 0 1 1 1 1 1 1 1 1 1 1 1 1 
1 1 1 1 1 1 0 1 1 1 1 1 1 1 0 0 1 1 1 1 0 0 1 1 0 1 1 1 1 1 
1 1 1 1 1 1 1 1 1 1 1 1 0 0 0 1 1 1 1 0 0 1 1 1 1 1 1 0 1 1 
1 1 1 1 1 1 1 1 1 0 0 1 1 0 0 0 1 1 1 1 1 0 0 1 1 1 1 1 1 1 
1 1 1 1 1 1 1 1 1 1 1 0 1 1 1 1 1 1 1 1 1 1 1 1 1 1 1 1 1 1 
1 1 1 1 1 1 1 1 1 1 1 1 1 1 0 1 1 1 1 1 1 1 1 1 1 1 1 1 1 0 
0 1 1 1 1 1 1 1 1 1 1 1 1 1 1 0 0 0 1 1 1 1 1 1 1 1 1 1 1 1 
0 0 1 1 1 0 1 1 0 1 1 1 1 1 1 1 1 1 1 1 1 1 0 1 1 1 1 1 1 1 
0 1 1 1 1 1 1 0 1 1 0 1 1 1 1 1 1 1 1 1 1 1 1 1 1 1 1 1 1 1 
1 1 1 1 1 1 0 0 0 1 1 1 1 0 0 1 0 1 0 1 1 1 0 1 1 1 1 1 1 0 
0 1 1 1 0 0 0 1 1 1 1 0 0 1 1 1 1 1 1 1 1 1 0 0 1 1 1 1 1 1 
1 1 1 1 1 1 1 1 1 0 1 1 1 1 1 1 1 1 1 1 1 0 0 1 1 1 1 1 1 1 
1 1 1 0 0 0 0 0 0 1 1 0 0 0 1 0 1 1 1 1 1 1 1 1 1 1 0 1 1 1 
1 0 0 1 0 0 1 0 1 1 1 1 1 1 1 0 1 0 1 1 1 1 0 1 1 1 0 1 1 1 
1 0 0 1 1 1 0 1 1 1 1 1 1 1 0 0 1 1 1 1 0 0 1 1 0 1 1 0 1 0 
1 1 1 1 0 0 0 1 1 1 1 1 0 0 1 1 1 1 1 1 1 1 1 0 1 1 1 1 1 1 
1 1 0 1 1 1 0 0 1 1 1 0 0 1 0 1 1 1 1 1 0 1 1 1 1 1 1 1 1 1 
1 1 1 1 1 1 1 1 1 1 1 0 0 0 1 0 1 1 1 1 0 1 1 1 1 1 1 1 1 1 
0 1 0 1 1 1 0 1 1 1 1 1 0 0 1 1 1 1 1 0 1 0 1 0 1 1 1 0 0 1 
0 1 0 1 1 1 1 0 0 0 1 1 0 0 0 1 1 0 1 1 1 0 0 1 1 1 0 1 1 1 
0 0 1 1 1 0 1 1 0 1 1 0 0 0 0 0 0 1 1 0 1 1 0 1 0 0 0 0 0 1 
0 0 0 1 0 0 1 0 0 0 0 0 1 1 0 0 1 1 0 0 0 0 0 0 0 0 0 1 1 1 
0 1 1 0 1 1 1 1 1 1 1 1 1 0 0 1 0 0 1 1 1 1 1 1 1 1 1 1 1 1 
1 1 1 1 0 1 0 0 0 1 1 1 1 1 1 1 0 0 1 0 0 1 1 1 1 0 1 1 1 0 
1 1 1 0 0 1 1 0 0 0 0 0 1 1 1 1 1 1 1 1 1 1 0 0 0 0 1 1 1 1 
0 1 0 1 1 1 0 0 1 1 1 0 1 1 1 1 1 0 1 1 1 0 0 0 1 1 0 0 1 1 
1 1 0 0 0 1 1 1 0 0 1 0 1 1 1 1 0 1 0 1 0 0 0 0 1 1 1 1 1 1 


SCALARS sensitivity_number float
LOOKUP_TABLE default
0.1303644789431909 0.12013761141745366 0.11012357690737867 0.11998758875548053 0.1098965014792683 0.07833084337018915 
0.07004780492161887 0.0350386614294507 0.03408953442881475 0.03273925417103976 0.03202806977890082 0.03137663428686556 
0.030151017176362975 1.5793294474408965e-08 1.231501911182859e-08 1.980245489260006e-08 1.6278636890043788e-08 0.07770413300182609 
0.06831408935667704 0.06899897743856595 0.07121634490532808 0.059741684946326694 0.061116067349570605 0.052470259699968026 
0.04965674712838631 0.050682193067265395 0.044263231104885455 0.04073025978979817 0.050704371335564116 0.04107700852481519 
0.04865065603634333 0.04513005230628413 0.046605405019524725 0.03575305871888225 0.04283643099328289 0.04172812668800664 
0.03935715505789816 0.03301170707984053 0.026100556614896055 0.03345433084668546 0.018458020338468953 0.007755510139048143 
0.02127913507279172 0.030792489144307194 0.031220492386262857 0.013373278131548982 0.006987373203648722 0.009401662361989227 
0.018456836302262813 0.030614257405485228 0.030661118986339535 0.0006032753994294714 0.030291942942605992 0.030098331365365594 
0.030432274924612774 0.030228991894485628 0.13420975803304824 0.130395722115178 0.11016193539842284 0.12022029768951188 
0.10019758448953381 0.0903919028181166 0.08071348563848367 0.07116460453549413 0.06174659457480778 0.05253679795452571 
0.03571508504756482 0.04376788621548866 0.020260357631329818 0.010772546051791076 6.757415931339929e-08 6.651103541887821e-08 
7.327120044755803e-08 6.976611288673517e-08 0.010527554167937152 0.024150334561710323 0.04094474168054772 0.051482674804332364 
0.059919397373976266 0.06860197887087373 0.07839722899675161 0.10710043814443114 0.09045143653463203 0.14802447490475767 
0.23024916835704098 0.2094235707094757 0.1350626197630451 0.13476747308934445 0.1349207080843412 0.13450401507831242 
0.13415074611477643 0.13310123368432714 0.13368657529366784 0.13239319363469995 0.1315609073443609 0.12949584539436745 
0.13059922162964774 0.1282320619054514 0.1267864014502442 0.12514110043752635 0.12328953727329366 0.12124283287067235 
0.11671529926982714 0.11903353851037228 0.11203954842403617 0.11435805018546494 0.10983520097117232 0.10780824250709495 
0.10444053792716859 0.10600273171064666 0.10203254375637916 0.10312246381476149 0.10114349760188986 0.10042179040522227 
0.0993311846724681 0.09983071133077111 0.09842998697354641 0.09888048180159298 0.09792309212537542 0.09729497679096254 
0.09539345821575554 0.09647515071241052 0.0922222768634223 0.09398923476156522 0.09008343869553248 0.08760225937674843 
0.0819286461833896 0.08484884222656204 0.07610644594856768 0.0789699403202436 0.07345902451622124 0.07112107750163718 
0.06757104387560595 0.06915079952415858 0.06553478408362234 0.06637504086314254 0.06500947596655655 0.06476295114706526 
0.06487133522319055 0.0647301066337128 0.06539244713160657 0.06511423057018663 0.0656363047026418 0.0657795333157562 
0.06552905453632435 0.06577113527039193 0.06417315118712828 0.06501273727016428 0.06300117881133441 0.061515769335043116 
0.05779602208693914 0.05976006851793853 0.053615799505874986 0.05570568199364749 0.05171418330815533 0.05035351660896608 
0.0489672614331853 0.0495866655093898 0.04779522293397135 0.04834211413079143 0.04755048012620428 0.047348001514216885 
0.04709583966613327 0.04722871119729376 0.046828259194502224 0.046962110903242885 0.046694969198619825 0.04656166415803028 
0.04629500202785232 0.04642833306310227 0.046028783877161666 0.046161669261222595 0.045898916448779914 0.04576990848044021 
0.045747003321398465 0.04562344907781689 0.04596268623078626 0.047071350999863724 0.050540873467309747 0.06413682383628878 
0.05500230941645946 0.08127776731234304 0.21787406799118159 0.18816881432896454 0.22658511796629105 0.11588411681486754 
0.15142563106097698 0.08904633531514676 0.06869767638291545 0.04077469810212174 0.05316335439606765 0.03043326567118765 
0.019906065769290736 0.006412044451736306 5.4538097279893596e-08 6.461091837754106e-08 4.941436391542452e-08 4.702091910809542e-08 
4.4248738487188434e-08 3.8713192718580426e-08 4.184368506798486e-08 3.5370322942820596e-08 3.150031737263915e-08 2.2754938734303934e-08 
2.718145960039978e-08 1.8438890738155324e-08 1.0807413237151406e-08 1.4458156332857665e-08 7.558702305767341e-09 4.78431896939185e-09 
2.679661650479339e-09 1.2358614997614175e-09 7.373646475669868e-10 0.24009587906239213 0.14823462980517027 0.17935719249304818 
0.13916158421245253 0.1332871958513471 0.12705794047428104 0.12975542190617065 0.12490508717315943 0.12311449117513285 
0.12162086847456048 0.12034510224333463 0.11921549796049775 0.11710658618914374 0.11815886448898313 0.11599970910812978 
0.11479539180593186 0.11347171829660861 0.11049408645370866 0.11203008064508997 0.1089051508039985 0.10731549180344195 
0.1057798411740309 0.10305713120238148 0.10434765340354328 0.10193206794285002 0.10098145740827548 0.10020136832504496 
0.0990892903738116 0.09957777626846474 0.09870870807024594 0.09840294168755981 0.09813143135269214 0.09747785286702482 
0.09784378608034629 0.09695986569001028 0.09620808906324946 0.09514066870132565 0.09180324673459249 0.09368735069317878 
0.08948175234616537 0.08676327808890308 0.08373687402962747 0.07730898069986195 0.08053317958323568 0.07422618932866439 
0.07142958001473496 0.06902873198216103 0.06562824969200541 0.06708829435732101 0.06463257198259326 0.06407135100033015 
0.06389959577218171 0.06454748989168504 0.06407174880374941 0.06526554509242963 0.06616934469208655 0.06718328281366301 
0.06904693724836582 0.0681938483538492 0.06957866514347456 0.0696848076883262 0.06922863821086074 0.0664583821077493 
0.06817363246096074 0.06408860763898457 0.0610687493546679 0.05740420898668299 0.04844393415327189 0.05314874256195688 
0.04352554409127314 0.03887291168973558 0.034679514721664986 0.02896097076807812 0.031328515738501275 0.027148221560316294 
0.02144003497328751 0.02130747992776929 0.004335160361563146 0.011954640528914928 6.373917988822665e-08 6.1136823793991e-08 
5.8518007015750175e-08 4.811017877249799e-08 5.3060233858755094e-08 4.455349311118316e-08 4.114374831671553e-08 3.388316300098252e-08 
3.759942841746165e-08 2.9953387093927885e-08 2.5812147556186477e-08 1.7653229455806557e-08 2.165748406839919e-08 1.0481661780372487e-08 
1.3930087896535509e-08 7.383338803392975e-09 4.706635470764886e-09 1.2305901551431597e-09 2.654247883682278e-09 0.11249045728376866 
0.11359898136794107 0.09980788979371034 0.09571171652807325 0.09376103708973993 0.08851105544534955 0.07220404640608627 
0.07512317983649777 0.06222697490170142 0.06561259689888553 0.06328485983903741 0.048065342389110095 0.029304067547126857 
0.03087924416023954 0.0029452981874873146 3.666411617224421e-08 3.9683539620808594e-08 0.12433622079149911 0.12962849043792218 
0.12989785355103722 0.08186306047109035 0.0977794772682635 1.2680181198082792e-08 0.13677545784085754 0.14721577863593824 
0.11017916193214139 0.10025029652110456 0.12472258403993854 0.12353585064098717 6.246151908247499e-09 0.1112991267063646 
0.10999979250994711 0.06953752427388445 0.06723265771673562 0.0272917555440022 0.02358341233603272 0.12025066948716484 
0.08087715138109067 0.0904840807313742 0.05289047426608693 0.06196716428364611 0.1292702735346449 0.12879919650259813 
0.1257704907777084 0.1206590488782298 0.12218819935358732 0.04559223482970939 0.04603157289256701 0.04562133153236942 
0.1714914080169726 0.11195528618566815 0.06703640034652972 0.054221257448199604 0.023982466986060713 0.03544450779642207 
0.020629273822139492 0.009506569491040001 4.5779880659447825e-08 4.231560287328637e-08 3.287659712327015e-08 2.0345525342457727e-08 
1.639564841106289e-08 0.19124863408066908 0.16572360002956957 0.13131406563754996 0.12733121245664353 0.11696061028806626 
0.11832866291596357 0.11576709353865895 0.11467059053001838 0.10248557511305713 0.10108042266168622 0.09692455430252706 
0.0962586475111345 0.09452619144232927 0.0941716024785218 0.09153038582827269 0.09021283029584759 0.08113418504511162 
0.07815196033250202 0.0619722952485844 0.061976815760437405 0.06410655691372526 0.064910816331405 0.06568775729752858 
0.06475421577617418 0.05582891155067233 0.052208288804322885 0.035667695323522854 0.03286611629765896 5.9042930250606965e-08 
4.526903602912077e-08 4.1059193428582024e-08 3.1006103316919074e-08 2.7168127297690966e-08 6.166338269435285e-09 0.11893710611450947 
0.10398789920610363 0.09772973553695068 0.062264658653463624 0.06333648939882126 0.003459187155698051 0.09487548962978928 
0.09251388903813378 0.06610559582099139 0.05885268227352353 0.08392407624972761 0.03934564443860952 4.821366430924763e-08 
0.10848941717583958 0.10977619755757688 3.458356590056921e-08 0.04401723526555572 0.046248657706744314 0.0712542679787898 
2.4488191507493145e-08 1.9447817343379793e-08 0.07141228139542052 4.984607142145841e-08 9.075321421991392e-09 1.2782770340688282e-08 
0.062076410737639524 0.03578859758894859 0.009663319560044303 0.020934627706239738 6.577217510814692e-08 6.491304622542784e-08 
6.86285635150952e-08 7.184563316181903e-08 0.026991987964563844 0.011951845598678146 0.04439002210454777 0.053397824567120916 
0.08192645222594297 0.11320592403485075 0.09510228274159929 0.1482474355856766 0.1301126079642804 0.1282127041940746 
0.12751054637725212 0.12669682454163184 0.11702759107099181 0.11277288765011664 0.1149568449475503 0.10833677521264526 
0.11054125358749396 0.10623293826237312 0.10429150677364175 0.10104258973078674 0.10255481329390476 0.09867001246958096 
0.09975348399536695 0.09776492670450736 0.0970067083465039 0.09580092726341541 0.09636293007696112 0.09477958740402793 
0.0952861917796871 0.09423467615677511 0.09359650723120223 0.09178968242974321 0.09280303421437816 0.0888810662918386 
0.09049708990668726 0.08692328000382524 0.08464023885829028 0.07935942079324061 0.08208793069371889 0.07386159466419119 
0.07657433205617524 0.07133970546525134 0.06910032069580198 0.06565742150334006 0.0671994253712772 0.06359559980895554 
0.064465630286943 0.0630077989062253 0.06266226805341753 0.0625167886842667 0.06251560014516304 0.06273899106457785 
0.06260842947372751 0.06284837434301019 0.06287702287511975 0.06245969874136332 0.0627652410461278 0.061048685276709314 
0.06190154539483601 0.05988909861761726 0.0584389745112202 0.05483288716934938 0.056737697448040275 0.050570075333779684 
0.05276336915569362 0.04837167541473606 0.04661538113471654 0.04602766542774546 0.04566198565741764 0.04640000234512174 
0.04649610878876826 0.04614321697128995 0.046134260338905324 0.046046664278486416 0.04609831183368385 0.04594340424465514 
0.0459939738717488 0.045893369472325855 0.04584332425522988 0.04574309410157766 0.04579321891646689 0.04564251973518109 
0.04569257755505611 0.0455977317838851 0.045564832395352084 0.04530132550824398 0.051154833685830216 0.04513631363490286 
0.08033979935033934 0.043976141578401115 4.926653085937145e-08 2.874538068468783e-08 9.265746069918793e-09 2.032420794958206e-09 
3.7840902811706114e-09 0.11995278987643962 0.12191921971024867 0.10859038364134817 0.10709116143003315 0.1055405009312783 
0.09868887724893524 0.09525981535413802 0.09323235133095442 0.08640677539321542 0.06535267976546906 0.0639145139285119 
0.06289815547628846 0.0626924289860814 0.06604883271853011 0.06131975903844517 0.043626163012830205 0.018158490881546613 
0.018598840450598366 0.009979689082812082 5.3598184241310065e-08 3.7873212976881363e-08 2.3268923717299482e-08 3.762074713500728e-09 
0.1112864185237087 0.11310924124887994 4.520244029633807e-08 3.33432028343101e-08 6.830617534621532e-08 5.1642464700968874e-08 
0.010011292579233506 0.0297579556016036 0.02977986878196735 3.608933945675187e-08 3.8651343124593444e-08 3.642981924726771e-08 
0.11914985152369445 0.14464263010748127 0.062197381836171274 0.0488417627368964 0.021293072082989736 0.11810874758214143 
0.12155074478462773 6.376651922263842e-09 9.42689133363795e-09 0.029736196371473646 0.053876575227194405 3.596479030919134e-08 
0.10277838749709878 0.06343636372152595 0.03447600757131097 0.0035727967760047037 0.010779709551735931 4.21074546035122e-08 
3.900849479955187e-08 3.010594571895612e-08 0.0488458061896261 0.0557147647713664 0.10734242567203754 0.09300745859960088 
0.08865884053479833 0.08605143018747696 0.08175812064294526 0.0732488599740812 0.057361936489469176 0.058466968737291215 
0.056774612524796 0.04736169390935598 0.03549995596279314 0.017148986440210515 0.004256740783580216 0.02200967331983221 
3.9465311111404274e-08 4.260417273270853e-08 0.06775762638192827 0.0666251048014212 1.3007712533477168e-08 1.6744913705727166e-08 
0.1313815267978794 0.13901556976662688 0.10029970518848223 0.11266820893031326 9.50011898188063e-09 0.08121939674090412 
0.09066568898781098 0.06568949124926958 0.056387791078631004 0.11808012033679836 0.11867112988074516 0.11576113375457525 
0.11138353374378161 0.02990080475712103 0.029832354365348316 0.030570922322876323 0.030096334143423102 0.06276666366476437 
0.03836043349445237 0.043445955048733345 0.02862207617014287 5.026722028784923e-08 4.671214719574808e-08 2.4406669257516586e-08 
2.0564764330855126e-08 0.1258557041884851 0.09560467199727508 0.09424771093962118 0.09006949556074013 0.08932082962158633 
0.08702512860201184 0.0865421942425926 0.0840896970382689 0.08306972267877932 0.07579621298542213 0.05790127790372244 
0.0575518732306582 0.0576675556695716 0.058048926875721676 0.05845836185157736 0.05776344819285348 0.05267965745820911 
0.05038662323447239 0.0373655332632831 0.10993122606851427 0.10830280165953692 0.09704753299706707 0.09853298259526945 
0.09092335628792339 0.09189916357313874 0.058440786876629396 0.05921309264253805 0.057415999255129066 0.05731882099377806 