    1C
    1UAbaqus DataFile Version 6.14                                      
    1Uwritten by meshio v5.3.5                                          
    1UUSER                                                              
    1UDATE              08.may.2026                                     
    1UTIME              02:54:28                                        
    1UHOST                                                              
    1UPGM               CalculiX                                        
    1UVERSION           Version 2.22                             
    1UCOMPILETIME       Mon Aug  5 19:15:25 CEST 2024                    
    1UDIR                                                               
    1UDBN                                                               
    1UMAT    1MSTEEL                                                    
    2C                           258                                     1
 -1         1-3.68229E+04-2.12597E+04-2.20000E+04
 -1         2-3.68218E+04-2.12597E+04-2.20000E+04
 -1         3-3.68229E+04-2.12597E+04 1.50000E+04
 -1         4 3.68229E+04-2.12597E+04 1.50000E+04
 -1         5 3.68229E+04-2.12597E+04-2.20000E+04
 -1         6 3.68218E+04-2.12597E+04-2.20000E+04
 -1         7 3.68218E+04-2.12597E+04-1.17800E+04
 -1         8 2.64144E+04-2.12597E+04-1.17800E+04
 -1         9 2.64144E+04-2.12597E+04-2.20000E+04
 -1        10-2.64144E+04-2.12597E+04-2.20000E+04
 -1        11-2.64144E+04-2.12597E+04-1.17800E+04
 -1        12-3.68218E+04-2.12597E+04-1.17800E+04
 -1        13-3.68223E+04-2.12587E+04-2.20000E+04
 -1        14-3.68223E+04-2.12587E+04-1.17800E+04
 -1        15-2.56091E+04-1.82547E+04-1.17800E+04
 -1        16-2.56337E+04-1.77112E+04-1.17800E+04
 -1        17-2.81552E+04-1.33439E+04-1.17800E+04
 -1        18-3.16187E+04-1.22457E+04-1.17800E+04
 -1        19-2.56091E+04-1.82547E+04-2.20000E+04
 -1        20 2.56337E+04-1.77112E+04-2.20000E+04
 -1        21 2.81552E+04-1.33439E+04-2.20000E+04
 -1        22 3.16187E+04-1.22457E+04-2.20000E+04
 -1        23 5.20424E+03 3.35054E+04-2.20000E+04
 -1        24 2.52150E+03 3.10551E+04-2.20000E+04
 -1        25-2.52150E+03 3.10551E+04-2.20000E+04
 -1        26-5.20424E+03 3.35054E+04-2.20000E+04
 -1        27-3.16187E+04-1.22457E+04-2.20000E+04
 -1        28-2.81552E+04-1.33439E+04-2.20000E+04
 -1        29-2.53051E+04-1.63449E+04-2.20000E+04
 -1        30-2.56337E+04-1.77112E+04-2.20000E+04
 -1        31 1.63000E+03 2.06901E+03-2.20000E+04
 -1        32 6.00900E+03 2.12306E+04-2.20000E+04
 -1        33 2.56337E+04-1.77112E+04-1.17800E+04
 -1        34 3.68223E+04-2.12587E+04-1.17800E+04
 -1        35 3.16187E+04-1.22457E+04-1.17800E+04
 -1        36 2.81552E+04-1.33439E+04-1.17800E+04
 -1        37 3.13151E+04-1.63449E+04-1.17800E+04
 -1        38 3.68223E+04-2.12587E+04-2.20000E+04
 -1        39-0.00000E+00 4.25194E+04 1.50000E+04
 -1        40-0.00000E+00 4.25194E+04-2.20000E+04
 -1        41 5.77366E-01 4.25184E+04-2.20000E+04
 -1        42 5.77366E-01 4.25184E+04-1.17800E+04
 -1        43 5.20424E+03 3.35054E+04-1.17800E+04
 -1        44-2.53051E+04-1.63449E+04 1.50000E+04
 -1        45 3.13151E+04-1.63449E+04 1.50000E+04
 -1        46 1.63000E+03 2.06901E+03 1.50000E+04
 -1        47 3.00500E+03 3.26897E+04 1.50000E+04
 -1        48-5.77366E-01 4.25184E+04-2.20000E+04
 -1        49-5.20424E+03 3.35054E+04-1.17800E+04
 -1        50-5.77366E-01 4.25184E+04-1.17800E+04
 -1        51-2.52150E+03 3.10551E+04-1.17800E+04
 -1        52 3.00500E+03 3.26897E+04-1.17800E+04
 -1        53 2.52150E+03 3.10551E+04-1.17800E+04
 -1        54 6.00900E+03 2.12306E+04-1.17800E+04
 -1        55-0.00000E+00-2.12597E+04 1.50000E+04
 -1        56-3.04800E+04-1.42660E+04-1.17800E+04
 -1        57-3.13017E+04-1.66281E+04-1.17800E+04
 -1        58-3.00513E+04-1.87940E+04-1.17800E+04
 -1        59-2.75947E+04-1.92635E+04-1.17800E+04
 -1        60 2.57077E+04-1.48424E+04-2.20000E+04
 -1        61-0.00000E+00 2.96847E+04-2.20000E+04
 -1        62-2.61312E+04-1.42755E+04-2.20000E+04
 -1        63 1.01629E+03 3.34340E+03-2.20000E+04
 -1        64-3.62709E+02 3.65815E+03-2.20000E+04
 -1        65-1.46858E+03 2.77624E+03-2.20000E+04
 -1        66-1.46858E+03 1.36178E+03-2.20000E+04
 -1        67-3.62709E+02 4.79882E+02-2.20000E+04
 -1        68 1.01629E+03 7.94629E+02-2.20000E+04
 -1        69 3.74655E+03 2.59286E+04-2.20000E+04
 -1        70-1.33713E+03 2.70889E+04-2.20000E+04
 -1        71-5.41392E+03 2.38378E+04-2.20000E+04
 -1        72-5.41392E+03 1.86234E+04-2.20000E+04
 -1        73-1.33713E+03 1.53722E+04-2.20000E+04
 -1        74 3.74655E+03 1.65325E+04-2.20000E+04
 -1        75 3.03795E+04-1.41659E+04-1.17800E+04
 -1        76 2.76869E+04-1.92845E+04-1.17800E+04
 -1        77 3.02018E+04-1.86797E+04-1.17800E+04
 -1        78 1.84115E+04 1.06299E+04 1.50000E+04
 -1        79-1.84115E+04 1.06299E+04 1.50000E+04
 -1        80-2.64365E+04-1.39955E+04 1.50000E+04
 -1        81-2.89788E+04-1.34152E+04 1.50000E+04
 -1        82-3.10175E+04-1.50410E+04 1.50000E+04
 -1        83-3.10175E+04-1.76487E+04 1.50000E+04
 -1        84-2.89788E+04-1.92745E+04 1.50000E+04
 -1        85-2.64365E+04-1.86943E+04 1.50000E+04
 -1        86 3.01837E+04-1.39955E+04 1.50000E+04
 -1        87 2.76415E+04-1.34152E+04 1.50000E+04
 -1        88 2.56027E+04-1.50410E+04 1.50000E+04
 -1        89 2.56027E+04-1.76487E+04 1.50000E+04
 -1        90 2.76415E+04-1.92745E+04 1.50000E+04
 -1        91 3.01837E+04-1.86943E+04 1.50000E+04
 -1        92 1.01629E+03 3.34340E+03 1.50000E+04
 -1        93-3.62709E+02 3.65815E+03 1.50000E+04
 -1        94-1.46858E+03 2.77624E+03 1.50000E+04
 -1        95-1.46858E+03 1.36178E+03 1.50000E+04
 -1        96-3.62709E+02 4.79882E+02 1.50000E+04
 -1        97 1.01629E+03 7.94629E+02 1.50000E+04
 -1        98 1.87359E+03 3.50391E+04 1.50000E+04
 -1        99-6.68675E+02 3.56194E+04 1.50000E+04
 -1       100-2.70741E+03 3.39935E+04 1.50000E+04
 -1       101-2.70741E+03 3.13859E+04 1.50000E+04
 -1       102-6.68675E+02 2.97601E+04 1.50000E+04
 -1       103 1.87359E+03 3.03403E+04 1.50000E+04
 -1       104 1.79844E+03 3.50971E+04-1.17800E+04
 -1       105-8.52329E+02 3.55713E+04-1.17800E+04
 -1       106-2.81865E+03 3.37315E+04-1.17800E+04
 -1       107 3.74655E+03 2.59286E+04-1.17800E+04
 -1       108-1.33713E+03 2.70889E+04-1.17800E+04
 -1       109-5.41392E+03 2.38378E+04-1.17800E+04
 -1       110-5.41392E+03 1.86234E+04-1.17800E+04
 -1       111-1.33713E+03 1.53722E+04-1.17800E+04
 -1       112 3.74655E+03 1.65325E+04-1.17800E+04
 -1       113 1.72161E+04-2.12597E+04-3.50000E+03
 -1       114-6.84343E+03-2.12597E+04-5.40161E+03
 -1       115-2.65647E+03-1.10567E+04-2.20000E+04
 -1       116-1.80737E+03-2.11070E+03-2.20000E+04
 -1       117-9.58591E+03-2.57506E+03-2.20000E+04
 -1       118 9.80341E+03 2.55394E+04-3.50000E+03
 -1       119 2.18332E+04 4.70327E+03-5.40161E+03
 -1       120 3.63315E+03 1.87428E+04 1.50000E+04
 -1       121 1.17117E+04-9.42457E+03 1.50000E+04
 -1       122 1.77512E+04-4.45950E+03 1.50000E+04
 -1       123-2.90537E+03 1.69650E+04 1.50000E+04
 -1       124-1.28040E+04-6.22093E+03 1.50000E+04
 -1       125 9.30752E+02 2.69467E+04 1.50000E+04
 -1       126-9.55235E+02 2.58995E+04 1.50000E+04
 -1       127 1.75825E+02 2.21385E+04 1.50000E+04
 -1       128-2.70195E+04-4.27972E+03-3.50000E+03
 -1       129-1.49897E+04 1.65564E+04-5.40161E+03
 -1       130-3.11483E+04-1.53575E+04-9.63130E+03
 -1       131-2.76416E+04-1.34152E+04 1.27632E+04
 -1       132-3.06761E+04-1.81975E+04 1.27614E+04
 -1       133-3.09125E+04-1.78474E+04-9.63130E+03
 -1       134-3.13017E+04-1.66281E+04-7.47513E+03
 -1       135-3.00412E+04-1.88012E+04-7.47672E+03
 -1       136-3.12507E+04-1.69640E+04-4.65164E+03
 -1       137-3.08810E+04-1.47889E+04-7.47576E+03
 -1       138-3.13151E+04-1.63449E+04 1.27614E+04
 -1       139-3.10206E+04-1.76422E+04 1.05214E+04
 -1       140-2.89617E+04-1.92784E+04 1.05146E+04
 -1       141-3.10099E+04-1.50253E+04 1.05146E+04
 -1       142-3.13151E+04-1.63500E+04 8.23595E+03
 -1       143-3.01191E+04-1.39454E+04 8.22262E+03
 -1       144-3.10060E+04-1.50173E+04 5.83037E+03
 -1       145-2.94341E+04-1.35580E+04 5.83166E+03
 -1       146-3.07858E+04-1.46417E+04 3.26988E+03
 -1       147-3.13076E+04-1.61318E+04 3.30304E+03
 -1       148-2.80903E+04-1.33479E+04 8.31351E+03
 -1       149-3.09662E+04-1.49394E+04 5.63276E+02
 -1       150-2.95446E+04-1.36051E+04 5.69933E+02
 -1       151-3.04571E+04-1.84473E+04 6.29423E+02
 -1       152-3.03566E+04-1.41444E+04-2.62438E+03
 -1       153-3.01808E+04-1.39931E+04 1.27631E+04
 -1       154-2.89784E+04-1.34151E+04 1.05350E+04
 -1       155-3.12146E+04-1.71158E+04 5.80592E+03
 -1       156-3.12192E+04-1.55917E+04-2.30681E+03
 -1       157-2.81138E+04-1.33463E+04 1.06274E+04
 -1       158-2.61667E+04-1.42388E+04 1.27611E+04
 -1       159-3.03984E+04-1.85057E+04-9.67020E+03
 -1       160-3.00316E+04-1.38818E+04-9.58833E+03
 -1       161-3.12168E+04-1.55825E+04-4.73032E+03
 -1       162-2.65974E+01 3.56946E+04 1.27611E+04
 -1       163-2.05311E+03 3.48840E+04-9.46978E+03
 -1       164-2.36564E+03 3.08367E+04 1.27610E+04
 -1       165-2.15734E+03 3.47816E+04 1.27602E+04
 -1       166-6.68960E+02 3.56193E+04 1.05160E+04
 -1       167-2.71211E+03 3.39837E+04 1.05149E+04
 -1       168-1.87725E+03 3.50362E+04 8.26472E+03
 -1       169 6.82141E+02 3.56163E+04 8.26622E+03
 -1       170-3.00491E+03 3.26665E+04 8.26412E+03
 -1       171-2.71320E+03 3.39814E+04 5.92436E+03
 -1       172-2.62484E+03 3.12268E+04 5.94483E+03
 -1       173-3.00281E+03 3.25750E+04 3.46446E+03
 -1       174-2.07528E+03 3.05164E+04 3.49578E+03
 -1       175-2.54521E+03 3.10922E+04 8.32038E+02
 -1       176-2.91600E+03 3.34157E+04 8.64927E+02
 -1       177-2.05430E+03 3.04966E+04 6.44727E+03
 -1       178-2.64742E+03 3.12680E+04-7.73187E+03
 -1       179 1.41771E+02 2.96881E+04 1.07829E+04
 -1       180 3.00000E-10 2.96847E+04-1.68056E+04
 -1       181-2.97912E+03 3.30832E+04-2.25597E+03
 -1       182 1.61438E+01 3.56947E+04-2.10352E+03
 -1       183-1.93414E+03 3.03899E+04-2.14808E+03
 -1       184-9.71055E+02 2.98459E+04 8.30222E+02
 -1       185-2.99859E+03 3.28859E+04 1.27601E+04
 -1       186-2.93306E+03 3.20361E+04 1.05414E+04
 -1       187-2.70288E+03 3.13765E+04 8.26213E+03
 -1       188 1.81340E+03 3.50859E+04 1.05584E+04
 -1       189-2.46601E+03 3.44069E+04 3.47718E+03
 -1       190-1.47893E+03 3.53056E+04 5.92027E+03
 -1       191-2.41825E+03 3.44736E+04-5.35177E+03
 -1       192-3.79915E+02 3.56706E+04-8.50707E+03
 -1       193-1.84818E+03 3.03203E+04-4.78724E+03
 -1       194-9.00478E+02 2.98228E+04-4.89759E+03
 -1       195 5.24387E+02 2.97308E+04-8.75414E+03
 -1       196-3.00418E+03 3.26197E+04-9.67147E+03
 -1       197-1.70470E+03 3.02150E+04-6.85012E+03
 -1       198 2.90128E+04-1.92666E+04-9.55908E+03
 -1       199 2.53051E+04-1.63449E+04 1.27614E+04
 -1       200 2.93519E+04-1.35262E+04-8.54968E+03
 -1       201 2.82834E+04-1.33400E+04 1.27614E+04
 -1       202 2.54887E+04-1.73792E+04-7.87900E+03
 -1       203 2.60287E+04-1.43890E+04-9.04821E+03
 -1       204 2.57077E+04-1.48424E+04-1.68056E+04
 -1       205 2.61760E+04-1.42293E+04 1.27614E+04
 -1       206 2.76415E+04-1.34152E+04 1.05169E+04
 -1       207 3.01941E+04-1.40038E+04 1.05166E+04
 -1       208 2.59439E+04-1.81971E+04 1.27617E+04
 -1       209 2.56027E+04-1.76486E+04 1.05237E+04
 -1       210 2.76437E+04-1.92750E+04 1.05224E+04
 -1       211 2.55980E+04-1.50510E+04 1.05177E+04
 -1       212 2.64317E+04-1.39993E+04 8.26517E+03
 -1       213 2.53815E+04-1.56717E+04 8.26717E+03
 -1       214 2.55949E+04-1.50573E+04 5.49336E+03
 -1       215 2.55481E+04-1.51611E+04-6.06067E+03
 -1       216 2.57014E+04-1.78364E+04-4.86613E+03
 -1       217 2.54206E+04-1.55199E+04-3.15864E+03
 -1       218 2.59187E+04-1.81645E+04-1.97986E+03
 -1       219 2.77527E+04-1.92977E+04-4.52597E+03
 -1       220 2.74106E+04-1.92121E+04-2.08655E+03
 -1       221 2.72287E+04-1.35412E+04 5.78980E+03
 -1       222 2.66780E+04-1.38217E+04 3.28717E+03
 -1       223 2.87394E+04-1.33707E+04 4.17638E+03
 -1       224 2.73092E+04-1.35114E+04-4.36049E+03
 -1       225 2.60376E+04-1.83110E+04 5.71492E+03
 -1       226 2.68214E+04-1.37345E+04-1.33967E+03
 -1       227 2.98132E+04-1.37428E+04-2.51678E+03
 -1       228 2.76386E+04-1.34159E+04 8.26709E+03
 -1       229 2.63269E+04-1.86025E+04-7.14630E+03
 -1       230 2.60502E+04-1.83255E+04 1.73139E+03
 -1       231 2.66929E+04-1.88776E+04-9.68356E+03
 -1       232 2.53418E+04-1.58765E+04-2.38951E+02
 -1       233 2.87897E+04-1.93113E+04 3.43030E+03
 -1       234 2.66197E+04-1.38604E+04-6.99933E+03
 -1       235 2.74955E+04-1.34524E+04 1.01319E+03
 -1       236 2.63210E+04-1.40924E+04 9.48317E+02
 -1       237 2.53493E+04-1.58317E+04 3.08618E+03
 -1       238-6.00500E+03 2.10113E+04-1.70420E+04
 -1       239 1.79414E+03 1.54957E+04-1.72629E+04
 -1       240 1.71148E+03 2.69907E+04-1.73276E+04
 -1       241 4.41147E+03 1.71505E+04-1.70333E+04
 -1       242 4.43593E+03 2.52840E+04-1.70521E+04
 -1       243-3.74072E+03 1.65279E+04-1.66801E+04
 -1       244-4.02344E+03 2.56937E+04-1.68273E+04
 -1       245-0.00000E+00 2.12306E+04-1.17800E+04
 -1       246 9.42124E+03-5.01111E+03 1.06223E+03
 -1       247 1.83728E+04-9.42629E+03 9.46882E+03
 -1       248 1.47867E+04-1.45020E+04 9.53220E+03
 -1       249-2.84503E+03 2.02137E+04-2.01915E+03
 -1       250-5.75023E+03 2.46947E+04-5.50835E+03
 -1       251-7.68700E+03 2.37486E+04 4.81667E+03
 -1       252-6.14029E+03-1.92148E+04 3.73564E+02
 -1       253 2.23120E+04-4.56294E+03 4.41091E+03
 -1       254 1.80329E+04-8.31202E+03-7.13186E+03
 -1       255 2.28040E+04-1.03002E+04 5.07245E+03
 -1       256 1.90097E+04-1.96636E+04 3.70582E+03
 -1       257-5.18720E+03 2.29526E+04 1.03862E+04
 -1       258 1.44978E+03 2.39173E+04-6.08098E+03
 -3
    3C                           739                                     1
 -1         1    3    0    1
 -2        92       112       111       249
 -1         2    3    0    1
 -2       134       130        14       137
 -1         3    3    0    1
 -2       135        12        11       151
 -1         4    3    0    1
 -2       161       137        18       152
 -1         5    3    0    1
 -2       186       164       185       257
 -1         6    3    0    1
 -2       147       155         3       151
 -1         7    3    0    1
 -2        45        37         4       233
 -1         8    3    0    1
 -2        16       114        29       252
 -1         9    3    0    1
 -2       114         9        10       115
 -1        10    3    0    1
 -2       150       149       146       128
 -1        11    3    0    1
 -2       101       126       123       257
 -1        12    3    0    1
 -2       112        46       111       246
 -1        13    3    0    1
 -2       242       118        54        32
 -1        14    3    0    1
 -2       206       207       228       253
 -1        15    3    0    1
 -2        79       157       154       128
 -1        16    3    0    1
 -2       202       215       203       254
 -1        17    3    0    1
 -2       241        54       112       119
 -1        18    3    0    1
 -2        63        92        46       111
 -1        19    3    0    1
 -2       111       110       243       129
 -1        20    3    0    1
 -2       237       236       232       255
 -1        21    3    0    1
 -2       119        23        32       118
 -1        22    3    0    1
 -2        52        47        43       188
 -1        23    3    0    1
 -2        47       177       184       179
 -1        24    3    0    1
 -2        80       131        81       124
 -1        25    3    0    1
 -2        71        27        72       129
 -1        26    3    0    1
 -2       203        33       202       254
 -1        27    3    0    1
 -2       110       238       243       129
 -1        28    3    0    1
 -2       119       224       234       200
 -1        29    3    0    1
 -2       112       239       241        63
 -1        30    3    0    1
 -2       137        18        14       161
 -1        31    3    0    1
 -2       111       112       245       258
 -1        32    3    0    1
 -2        32       118        54       119
 -1        33    3    0    1
 -2       226       224       217       254
 -1        34    3    0    1
 -2       209       225       210       256
 -1        35    3    0    1
 -2       190        39       169       182
 -1        36    3    0    1
 -2        46       111        92       112
 -1        37    3    0    1
 -2       203       204        33       254
 -1        38    3    0    1
 -2       119       246       112       254
 -1        39    3    0    1
 -2       131        80       158       124
 -1        40    3    0    1
 -2        94        65       117       111
 -1        41    3    0    1
 -2       117        94       111       129
 -1        42    3    0    1
 -2       112       119       118       249
 -1        43    3    0    1
 -2        47       184        43       118
 -1        44    3    0    1
 -2       149       150       152       128
 -1        45    3    0    1
 -2       224       215       217       254
 -1        46    3    0    1
 -2        25        51       244       180
 -1        47    3    0    1
 -2       111       243       117       129
 -1        48    3    0    1
 -2       213       211       212       247
 -1        49    3    0    1
 -2        24        53       180       240
 -1        50    3    0    1
 -2       155       140         3       151
 -1        51    3    0    1
 -2        17       128       152       150
 -1        52    3    0    1
 -2       215       224       234       254
 -1        53    3    0    1
 -2       233       225       230       256
 -1        54    3    0    1
 -2       179       126       127       125
 -1        55    3    0    1
 -2       223       228       207       253
 -1        56    3    0    1
 -2       239       112       111        63
 -1        57    3    0    1
 -2       209       208       199       248
 -1        58    3    0    1
 -2       150       146       145       128
 -1        59    3    0    1
 -2        55       121        89       248
 -1        60    3    0    1
 -2        47       103       179       118
 -1        61    3    0    1
 -2       170       172       187       251
 -1        62    3    0    1
 -2       117        65       243       111
 -1        63    3    0    1
 -2       111       245       110       249
 -1        64    3    0    1
 -2        94       111       129       249
 -1        65    3    0    1
 -2       110       245       109       249
 -1        66    3    0    1
 -2       112       249       118       258
 -1        67    3    0    1
 -2       127       120       123       249
 -1        68    3    0    1
 -2       112        92       119       249
 -1        69    3    0    1
 -2       123       127       249       257
 -1        70    3    0    1
 -2        43        23       118       242
 -1        71    3    0    1
 -2       203       215       234       254
 -1        72    3    0    1
 -2       241        32        54       119
 -1        73    3    0    1
 -2       219         7         8       198
 -1        74    3    0    1
 -2       115       204        60       254
 -1        75    3    0    1
 -2        12       135       136       151
 -1        76    3    0    1
 -2        93        64        94       111
 -1        77    3    0    1
 -2        94        64        65       111
 -1        78    3    0    1
 -2        11        15       135       151
 -1        79    3    0    1
 -2        47       184       118       179
 -1        80    3    0    1
 -2       238        71        72       129
 -1        81    3    0    1
 -2       108       178       197       195
 -1        82    3    0    1
 -2        93        63       111        92
 -1        83    3    0    1
 -2       120       118        78       249
 -1        84    3    0    1
 -2        63        93       111        64
 -1        85    3    0    1
 -2        94        93       111       249
 -1        86    3    0    1
 -2       205       206       211       247
 -1        87    3    0    1
 -2       242        23       118        32
 -1        88    3    0    1
 -2        47       120       103       118
 -1        89    3    0    1
 -2        50       163       191        49
 -1        90    3    0    1
 -2        93        92       111       249
 -1        91    3    0    1
 -2       211       206       212       247
 -1        92    3    0    1
 -2       237       222       236       255
 -1        93    3    0    1
 -2       111       249       112       258
 -1        94    3    0    1
 -2       101       123        79       257
 -1        95    3    0    1
 -2       112       119        46       246
 -1        96    3    0    1
 -2        17       115        62       117
 -1        97    3    0    1
 -2       128        17       117       252
 -1        98    3    0    1
 -2       135        16       151        15
 -1        99    3    0    1
 -2       116       117       115       252
 -1       100    3    0    1
 -2       215       217       113       216
 -1       101    3    0    1
 -2       115        29       114       252
 -1       102    3    0    1
 -2       124       128       129       252
 -1       103    3    0    1
 -2       163       178       191       196
 -1       104    3    0    1
 -2       218       220       230       113
 -1       105    3    0    1
 -2       108        51       244       109
 -1       106    3    0    1
 -2       204        20       115        60
 -1       107    3    0    1
 -2       119       234       224       254
 -1       108    3    0    1
 -2       111       245       249       258
 -1       109    3    0    1
 -2       128       117       129       252
 -1       110    3    0    1
 -2       199       211       209       248
 -1       111    3    0    1
 -2       173       175       174       251
 -1       112    3    0    1
 -2        79        81       131       124
 -1       113    3    0    1
 -2        96        66        67       116
 -1       114    3    0    1
 -2       113       202       215       216
 -1       115    3    0    1
 -2       174       172       173       251
 -1       116    3    0    1
 -2       108       195       197       258
 -1       117    3    0    1
 -2       114        55       113       252
 -1       118    3    0    1
 -2        31       246        68       254
 -1       119    3    0    1
 -2       130        18        14       137
 -1       120    3    0    1
 -2       112        54       118       119
 -1       121    3    0    1
 -2       115       114         9       113
 -1       122    3    0    1
 -2       120        78        92       249
 -1       123    3    0    1
 -2         3       139       140       155
 -1       124    3    0    1
 -2        47        78       120       118
 -1       125    3    0    1
 -2       228       221       212       255
 -1       126    3    0    1
 -2       213       212       214       255
 -1       127    3    0    1
 -2       237       255       232       256
 -1       128    3    0    1
 -2       115       117        17       252
 -1       129    3    0    1
 -2        93       123       120       249
 -1       130    3    0    1
 -2       209       211       213       248
 -1       131    3    0    1
 -2        54       112       118       258
 -1       132    3    0    1
 -2       117        94       129        95
 -1       133    3    0    1
 -2       150       145       148       128
 -1       134    3    0    1
 -2         8        20       113        33
 -1       135    3    0    1
 -2       109       245       108       258
 -1       136    3    0    1
 -2       117        95       129       252
 -1       137    3    0    1
 -2       124       129        95       252
 -1       138    3    0    1
 -2        66       117        95        65
 -1       139    3    0    1
 -2        95        65       117        94
 -1       140    3    0    1
 -2       121        88        89       248
 -1       141    3    0    1
 -2       119        21        36       204
 -1       142    3    0    1
 -2       111        64       243       239
 -1       143    3    0    1
 -2       117        28        17       128
 -1       144    3    0    1
 -2       109       249       245       258
 -1       145    3    0    1
 -2       224       226       253       254
 -1       146    3    0    1
 -2       129       111       110       249
 -1       147    3    0    1
 -2       218       232       217       113
 -1       148    3    0    1
 -2        26        71       238       129
 -1       149    3    0    1
 -2       126       179       127       257
 -1       150    3    0    1
 -2        33       203        36       204
 -1       151    3    0    1
 -2       244       108       240       180
 -1       152    3    0    1
 -2       228       223       221       253
 -1       153    3    0    1
 -2        54       245       112       258
 -1       154    3    0    1
 -2       237       214       222       255
 -1       155    3    0    1
 -2       164       101       185       257
 -1       156    3    0    1
 -2       142       140       139       155
 -1       157    3    0    1
 -2       130        14       133       134
 -1       158    3    0    1
 -2        70       244       240       180
 -1       159    3    0    1
 -2       117       243        72       129
 -1       160    3    0    1
 -2       238        72       243       129
 -1       161    3    0    1
 -2       139         3       142       155
 -1       162    3    0    1
 -2       151        15        16       252
 -1       163    3    0    1
 -2       211       247       213       248
 -1       164    3    0    1
 -2       240        53       107       242
 -1       165    3    0    1
 -2       213       214       248       255
 -1       166    3    0    1
 -2       194       183       193       250
 -1       167    3    0    1
 -2       193       183       181       250
 -1       168    3    0    1
 -2       229       202       113       216
 -1       169    3    0    1
 -2       112        92        46       119
 -1       170    3    0    1
 -2       119        74        21        31
 -1       171    3    0    1
 -2       113       202        33       254
 -1       172    3    0    1
 -2       214       225       213       256
 -1       173    3    0    1
 -2       242       240        24        69
 -1       174    3    0    1
 -2        62        28        17       117
 -1       175    3    0    1
 -2        78       118       119       249
 -1       176    3    0    1
 -2       128        17       152       160
 -1       177    3    0    1
 -2       217       218       113       216
 -1       178    3    0    1
 -2       123       249       129       251
 -1       179    3    0    1
 -2       168        39       166       169
 -1       180    3    0    1
 -2       214       212       221       255
 -1       181    3    0    1
 -2        67        68        97       246
 -1       182    3    0    1
 -2       126       164       102       179
 -1       183    3    0    1
 -2       121       247        88       248
 -1       184    3    0    1
 -2       241        74        32       119
 -1       185    3    0    1
 -2        31        46        68       246
 -1       186    3    0    1
 -2        68        46        97       246
 -1       187    3    0    1
 -2        17       115        29        62
 -1       188    3    0    1
 -2       232       230       237       256
 -1       189    3    0    1
 -2        74        22        32       119
 -1       190    3    0    1
 -2       202       113       215       254
 -1       191    3    0    1
 -2       129       123        94       249
 -1       192    3    0    1
 -2        25       244        70       180
 -1       193    3    0    1
 -2       108       244        51       180
 -1       194    3    0    1
 -2        45         4       207        86
 -1       195    3    0    1
 -2       202         8       231       229
 -1       196    3    0    1
 -2        44       140       151       252
 -1       197    3    0    1
 -2       238        71        26       244
 -1       198    3    0    1
 -2       222       221       223       255
 -1       199    3    0    1
 -2        74        21        22       119
 -1       200    3    0    1
 -2       115        17        29       252
 -1       201    3    0    1
 -2       128       124       129        79
 -1       202    3    0    1
 -2       119       241        74        31
 -1       203    3    0    1
 -2       214       237       225       256
 -1       204    3    0    1
 -2       214       221       222       255
 -1       205    3    0    1
 -2        18        17        28       128
 -1       206    3    0    1
 -2       135       134        12       136
 -1       207    3    0    1
 -2       113       217       215       254
 -1       208    3    0    1
 -2        78       119        92       249
 -1       209    3    0    1
 -2        39       168       190       169
 -1       210    3    0    1
 -2        43       194       118       184
 -1       211    3    0    1
 -2       240        61        70       180
 -1       212    3    0    1
 -2       213       247       212       255
 -1       213    3    0    1
 -2       113       252       246       254
 -1       214    3    0    1
 -2       122        88       121       247
 -1       215    3    0    1
 -2       108       197       178       250
 -1       216    3    0    1
 -2       228       253       221       255
 -1       217    3    0    1
 -2       115        60        68       254
 -1       218    3    0    1
 -2       214       255       237       256
 -1       219    3    0    1
 -2       126       127       123       257
 -1       220    3    0    1
 -2       129       124        95        94