# vtk DataFile Version 3.0
Results from optimization
ASCII
DATASET UNSTRUCTURED_GRID

POINTS 3131 float
0.0 0.0 0.0 0.0 30.0 0.0 
100.0 0.0 0.0 100.0 30.0 0.0 
0.0 1.0 0.0 0.0 2.0 0.0 
0.0 3.0 0.0 0.0 4.0 0.0 
0.0 5.0 0.0 0.0 6.0 0.0 
0.0 7.0 0.0 0.0 8.0 0.0 
0.0 9.0 0.0 0.0 10.0 0.0 
0.0 11.0 0.0 0.0 12.0 0.0 
0.0 13.0 0.0 0.0 14.0 0.0 
0.0 15.0 0.0 0.0 16.0 0.0 
0.0 17.0 0.0 0.0 18.0 0.0 
0.0 19.0 0.0 0.0 20.0 0.0 
0.0 21.0 0.0 0.0 22.0 0.0 
0.0 23.0 0.0 0.0 24.0 0.0 
0.0 25.0 0.0 0.0 26.0 0.0 
0.0 27.0 0.0 0.0 28.0 0.0 
0.0 29.0 0.0 1.0 0.0 0.0 
2.0 0.0 0.0 3.0 0.0 0.0 
4.0 0.0 0.0 5.0 0.0 0.0 
6.0 0.0 0.0 7.0 0.0 0.0 
8.0 0.0 0.0 9.0 0.0 0.0 
10.0 0.0 0.0 11.0 0.0 0.0 
12.0 0.0 0.0 13.0 0.0 0.0 
14.0 0.0 0.0 15.0 0.0 0.0 
16.0 0.0 0.0 17.0 0.0 0.0 
18.0 0.0 0.0 19.0 0.0 0.0 
20.0 0.0 0.0 21.0 0.0 0.0 
22.0 0.0 0.0 23.0 0.0 0.0 
24.0 0.0 0.0 25.0 0.0 0.0 
26.0 0.0 0.0 27.0 0.0 0.0 
28.0 0.0 0.0 29.0 0.0 0.0 
30.0 0.0 0.0 31.0 0.0 0.0 
32.0 0.0 0.0 33.0 0.0 0.0 
34.0 0.0 0.0 35.0 0.0 0.0 
36.0 0.0 0.0 37.0 0.0 0.0 
38.0 0.0 0.0 39.0 0.0 0.0 
40.0 0.0 0.0 41.0 0.0 0.0 
42.0 0.0 0.0 43.0 0.0 0.0 
44.0 0.0 0.0 45.0 0.0 0.0 
46.0 0.0 0.0 47.0 0.0 0.0 
48.0 0.0 0.0 49.0 0.0 0.0 
50.0 0.0 0.0 51.0 0.0 0.0 
52.0 0.0 0.0 53.0 0.0 0.0 
54.0 0.0 0.0 55.0 0.0 0.0 
56.0 0.0 0.0 57.0 0.0 0.0 
58.0 0.0 0.0 59.0 0.0 0.0 
60.0 0.0 0.0 61.0 0.0 0.0 
62.0 0.0 0.0 63.0 0.0 0.0 
64.0 0.0 0.0 65.0 0.0 0.0 
66.0 0.0 0.0 67.0 0.0 0.0 
68.0 0.0 0.0 69.0 0.0 0.0 
70.0 0.0 0.0 71.0 0.0 0.0 
72.0 0.0 0.0 73.0 0.0 0.0 
74.0 0.0 0.0 75.0 0.0 0.0 
76.0 0.0 0.0 77.0 0.0 0.0 
78.0 0.0 0.0 79.0 0.0 0.0 
80.0 0.0 0.0 81.0 0.0 0.0 
82.0 0.0 0.0 83.0 0.0 0.0 
84.0 0.0 0.0 85.0 0.0 0.0 
86.0 0.0 0.0 87.0 0.0 0.0 
88.0 0.0 0.0 89.0 0.0 0.0 
90.0 0.0 0.0 91.0 0.0 0.0 
92.0 0.0 0.0 93.0 0.0 0.0 
94.0 0.0 0.0 95.0 0.0 0.0 
96.0 0.0 0.0 97.0 0.0 0.0 
98.0 0.0 0.0 99.0 0.0 0.0 
100.0 1.0 0.0 100.0 2.0 0.0 
100.0 3.0 0.0 100.0 4.0 0.0 
100.0 5.0 0.0 100.0 6.0 0.0 
100.0 7.0 0.0 100.0 8.0 0.0 
100.0 9.0 0.0 100.0 10.0 0.0 
100.0 11.0 0.0 100.0 12.0 0.0 
100.0 13.0 0.0 100.0 14.0 0.0 
100.0 15.0 0.0 100.0 16.0 0.0 
100.0 17.0 0.0 100.0 18.0 0.0 
100.0 19.0 0.0 100.0 20.0 0.0 
100.0 21.0 0.0 100.0 22.0 0.0 
100.0 23.0 0.0 100.0 24.0 0.0 
100.0 25.0 0.0 100.0 26.0 0.0 
100.0 27.0 0.0 100.0 28.0 0.0 
100.0 29.0 0.0 1.0 30.0 0.0 
2.0 30.0 0.0 3.0 30.0 0.0 
4.0 30.0 0.0 5.0 30.0 0.0 
6.0 30.0 0.0 7.0 30.0 0.0 
8.0 30.0 0.0 9.0 30.0 0.0 
10.0 30.0 0.0 11.0 30.0 0.0 
12.0 30.0 0.0 13.0 30.0 0.0 
14.0 30.0 0.0 15.0 30.0 0.0 
16.0 30.0 0.0 17.0 30.0 0.0 
18.0 30.0 0.0 19.0 30.0 0.0 
20.0 30.0 0.0 21.0 30.0 0.0 
22.0 30.0 0.0 23.0 30.0 0.0 
24.0 30.0 0.0 25.0 30.0 0.0 
26.0 30.0 0.0 27.0 30.0 0.0 
28.0 30.0 0.0 29.0 30.0 0.0 
30.0 30.0 0.0 31.0 30.0 0.0 
32.0 30.0 0.0 33.0 30.0 0.0 
34.0 30.0 0.0 35.0 30.0 0.0 
36.0 30.0 0.0 37.0 30.0 0.0 
38.0 30.0 0.0 39.0 30.0 0.0 
40.0 30.0 0.0 41.0 30.0 0.0 
42.0 30.0 0.0 43.0 30.0 0.0 
44.0 30.0 0.0 45.0 30.0 0.0 
46.0 30.0 0.0 47.0 30.0 0.0 
48.0 30.0 0.0 49.0 30.0 0.0 
50.0 30.0 0.0 51.0 30.0 0.0 
52.0 30.0 0.0 53.0 30.0 0.0 
54.0 30.0 0.0 55.0 30.0 0.0 
56.0 30.0 0.0 57.0 30.0 0.0 
58.0 30.0 0.0 59.0 30.0 0.0 
60.0 30.0 0.0 61.0 30.0 0.0 
62.0 30.0 0.0 63.0 30.0 0.0 
64.0 30.0 0.0 65.0 30.0 0.0 
66.0 30.0 0.0 67.0 30.0 0.0 
68.0 30.0 0.0 69.0 30.0 0.0 
70.0 30.0 0.0 71.0 30.0 0.0 
72.0 30.0 0.0 73.0 30.0 0.0 
74.0 30.0 0.0 75.0 30.0 0.0 
76.0 30.0 0.0 77.0 30.0 0.0 
78.0 30.0 0.0 79.0 30.0 0.0 
80.0 30.0 0.0 81.0 30.0 0.0 
82.0 30.0 0.0 83.0 30.0 0.0 
84.0 30.0 0.0 85.0 30.0 0.0 
86.0 30.0 0.0 87.0 30.0 0.0 
88.0 30.0 0.0 89.0 30.0 0.0 
90.0 30.0 0.0 91.0 30.0 0.0 
92.0 30.0 0.0 93.0 30.0 0.0 
94.0 30.0 0.0 95.0 30.0 0.0 
96.0 30.0 0.0 97.0 30.0 0.0 
98.0 30.0 0.0 99.0 30.0 0.0 
16.0 1.0 0.0 22.0 1.0 0.0 
28.0 1.0 0.0 34.0 1.0 0.0 
40.0 1.0 0.0 46.0 1.0 0.0 
52.0 1.0 0.0 58.0 1.0 0.0 
64.0 1.0 0.0 70.0 1.0 0.0 
76.0 1.0 0.0 82.0 1.0 0.0 
15.0 29.0 0.0 20.0 29.0 0.0 
25.0 29.0 0.0 30.0 29.0 0.0 
35.0 29.0 0.0 40.0 29.0 0.0 
45.0 29.0 0.0 50.0 29.0 0.0 
55.0 29.0 0.0 60.0 29.0 0.0 
65.0 29.0 0.0 70.0 29.0 0.0 
75.0 29.0 0.0 80.0 29.0 0.0 
99.0 13.0 0.0 85.0 29.0 0.0 
1.0 12.0 0.0 1.0 18.0 0.0 
99.0 18.0 0.0 88.0 1.0 0.0 
8.99999999994914 0.999999999973743 0.0 99.0 8.0 0.0 
8.0 29.0 0.0 89.0 29.0 0.0 
99.0 22.0 0.0 0.999995859328856 6.99995963616369 0.0 
1.0 23.0 0.0 93.0 1.0 0.0 
93.0 29.0 0.0 4.99897846844128 0.999401131561401 0.0 
99.0 4.0 0.0 99.0 25.0 0.0 
4.0 29.0 0.0 0.998018130894958 3.99456365118287 0.0 
96.0 29.0 0.0 1.0 27.0 0.0 
2.98755098591844 0.99220568858159 0.0 13.0 1.0 0.0 
97.0 1.0 0.0 99.0 27.0 0.0 
0.999999999429266 9.99999999116626 0.0 1.0 16.0 0.0 
20.0 1.0 0.0 26.0 1.0 0.0 
32.0 1.0 0.0 38.0 1.0 0.0 
44.0 1.0 0.0 50.0 1.0 0.0 
56.0 1.0 0.0 62.0 1.0 0.0 
68.0 1.0 0.0 74.0 1.0 0.0 
80.0 1.0 0.0 86.0 1.0 0.0 
99.0 15.0 0.0 10.0 29.0 0.0 
17.0 29.0 0.0 22.0 29.0 0.0 
27.0 29.0 0.0 32.0 29.0 0.0 
37.0 29.0 0.0 42.0 29.0 0.0 
47.0 29.0 0.0 52.0 29.0 0.0 
57.0 29.0 0.0 62.0 29.0 0.0 
67.0 29.0 0.0 72.0 29.0 0.0 
77.0 29.0 0.0 82.0 29.0 0.0 
0.982043965477184 1.98304218642421 0.0 1.0 29.0 0.0 
99.0 1.0 0.0 99.0 29.0 0.0 
0.983223912217958 0.987621281485569 0.0 0.999949380687591 5.99961944502072 0.0 
0.999999970537249 8.99999955168247 0.0 1.0 14.0 0.0 
1.0 20.0 0.0 1.0 22.0 0.0 
1.0 25.0 0.0 6.99998134409618 0.99999175922936 0.0 
10.9999999999491 0.999999999973743 0.0 15.0 1.0 0.0 
18.0 1.0 0.0 24.0 1.0 0.0 
30.0 1.0 0.0 36.0 1.0 0.0 
42.0 1.0 0.0 48.0 1.0 0.0 
54.0 1.0 0.0 60.0 1.0 0.0 
66.0 1.0 0.0 72.0 1.0 0.0 
78.0 1.0 0.0 84.0 1.0 0.0 
90.0 1.0 0.0 92.0 1.0 0.0 
95.0 1.0 0.0 99.0 2.0 0.0 
99.0 5.0 0.0 99.0 6.0 0.0 
99.0 9.0 0.0 99.0 10.0 0.0 
99.0 11.0 0.0 99.0 16.0 0.0 
99.0 19.0 0.0 99.0 20.0 0.0 
99.0 23.0 0.0 2.0 29.0 0.0 
5.0 29.0 0.0 6.0 29.0 0.0 
11.0 29.0 0.0 12.0 29.0 0.0 
13.0 29.0 0.0 18.0 29.0 0.0 
23.0 29.0 0.0 28.0 29.0 0.0 
33.0 29.0 0.0 38.0 29.0 0.0 
43.0 29.0 0.0 48.0 29.0 0.0 
53.0 29.0 0.0 58.0 29.0 0.0 
63.0 29.0 0.0 68.0 29.0 0.0 
73.0 29.0 0.0 78.0 29.0 0.0 
83.0 29.0 0.0 86.0 29.0 0.0 
87.0 29.0 0.0 90.0 29.0 0.0 
91.0 29.0 0.0 94.0 29.0 0.0 
97.0 29.0 0.0 16.0 2.0 0.0 
22.0 28.0 0.0 27.0 28.0 0.0 
52.0 28.0 0.0 57.0 28.0 0.0 
82.0 28.0 0.0 32.0 28.0 0.0 
37.0 28.0 0.0 62.0 28.0 0.0 
67.0 28.0 0.0 42.0 28.0 0.0 
72.0 28.0 0.0 98.0 15.0 0.0 
12.0 28.0 0.0 98.0 19.0 0.0 
89.0 28.0 0.0 98.0 10.0 0.0 
1.99999999531953 9.999999928767 0.0 93.0 2.0 0.0 
2.0 23.0 0.0 98.0 22.0 0.0 
93.0 28.0 0.0 1.99998433821395 6.9998796865685 0.0 
98.0 5.0 0.0 5.0 28.0 0.0 
85.0 28.0 0.0 96.0 28.0 0.0 
1.98413137230705 0.988341966066793 0.0 0.993390117123437 2.98985247870427 0.0 
0.999537928146093 4.99813727245904 0.0 0.999998442801018 7.99998651096591 0.0 
0.999999999636129 10.9999999944437 0.0 1.0 13.0 0.0 
1.0 15.0 0.0 1.0 17.0 0.0 
1.0 19.0 0.0 1.0 21.0 0.0 
1.0 24.0 0.0 1.0 26.0 0.0 
1.0 28.0 0.0 3.99605406296194 0.997383435909015 0.0 
5.99977465143194 0.999865295129002 0.0 7.9999965299808 0.999998450318377 0.0 
9.99999999988557 0.999999999940923 0.0 11.9999999999936 0.999999999996718 0.0 
14.0 1.0 0.0 17.0 1.0 0.0 
19.0 1.0 0.0 21.0 1.0 0.0 
23.0 1.0 0.0 25.0 1.0 0.0 
27.0 1.0 0.0 29.0 1.0 0.0 
31.0 1.0 0.0 33.0 1.0 0.0 
35.0 1.0 0.0 37.0 1.0 0.0 
39.0 1.0 0.0 41.0 1.0 0.0 
43.0 1.0 0.0 45.0 1.0 0.0 
47.0 1.0 0.0 49.0 1.0 0.0 
51.0 1.0 0.0 53.0 1.0 0.0 
55.0 1.0 0.0 57.0 1.0 0.0 
59.0 1.0 0.0 61.0 1.0 0.0 
63.0 1.0 0.0 65.0 1.0 0.0 
67.0 1.0 0.0 69.0 1.0 0.0 
71.0 1.0 0.0 73.0 1.0 0.0 
75.0 1.0 0.0 77.0 1.0 0.0 
79.0 1.0 0.0 81.0 1.0 0.0 
83.0 1.0 0.0 85.0 1.0 0.0 
87.0 1.0 0.0 89.0 1.0 0.0 
91.0 1.0 0.0 94.0 1.0 0.0 
96.0 1.0 0.0 98.0 1.0 0.0 
99.0 3.0 0.0 99.0 7.0 0.0 
99.0 12.0 0.0 99.0 14.0 0.0 
99.0 17.0 0.0 99.0 21.0 0.0 
99.0 24.0 0.0 99.0 26.0 0.0 
99.0 28.0 0.0 3.0 29.0 0.0 
7.0 29.0 0.0 9.0 29.0 0.0 
14.0 29.0 0.0 16.0 29.0 0.0 
19.0 29.0 0.0 21.0 29.0 0.0 
24.0 29.0 0.0 26.0 29.0 0.0 
29.0 29.0 0.0 31.0 29.0 0.0 
34.0 29.0 0.0 36.0 29.0 0.0 
39.0 29.0 0.0 41.0 29.0 0.0 
44.0 29.0 0.0 46.0 29.0 0.0 
49.0 29.0 0.0 51.0 29.0 0.0 
54.0 29.0 0.0 56.0 29.0 0.0 
59.0 29.0 0.0 61.0 29.0 0.0 
64.0 29.0 0.0 66.0 29.0 0.0 
69.0 29.0 0.0 71.0 29.0 0.0 
74.0 29.0 0.0 76.0 29.0 0.0 
79.0 29.0 0.0 81.0 29.0 0.0 
84.0 29.0 0.0 88.0 29.0 0.0 
92.0 29.0 0.0 95.0 29.0 0.0 
98.0 29.0 0.0 98.0 8.0 0.0 
10.0 28.0 0.0 86.0 28.0 0.0 
90.0 28.0 0.0 22.0 2.0 0.0 
28.0 2.0 0.0 34.0 2.0 0.0 
40.0 2.0 0.0 46.0 2.0 0.0 
52.0 2.0 0.0 58.0 2.0 0.0 
64.0 2.0 0.0 70.0 2.0 0.0 
76.0 2.0 0.0 82.0 2.0 0.0 
2.0 16.0 0.0 85.0 27.0 0.0 
88.0 2.0 0.0 11.9999999999928 1.99999999999631 0.0 
89.0 27.0 0.0 8.99999961400676 1.99999982348209 0.0 
5.9997075717904 1.99979502371096 0.0 1.99934767917968 4.99734291783241 0.0 
16.0 28.0 0.0 46.0 28.0 0.0 
76.0 28.0 0.0 2.0 27.0 0.0 
3.99556896721827 1.99618513026716 0.0 97.0 2.0 0.0 
2.0 20.0 0.0 94.0 28.0 0.0 
24.0 28.0 0.0 29.0 28.0 0.0 
34.0 28.0 0.0 39.0 28.0 0.0 
54.0 28.0 0.0 59.0 28.0 0.0 
64.0 28.0 0.0 69.0 28.0 0.0 
98.0 12.0 0.0 7.0 28.0 0.0 
98.0 24.0 0.0 97.0 28.0 0.0 
20.0 2.0 0.0 26.0 2.0 0.0 
32.0 2.0 0.0 38.0 2.0 0.0 
44.0 2.0 0.0 50.0 2.0 0.0 
56.0 2.0 0.0 62.0 2.0 0.0 
68.0 2.0 0.0 74.0 2.0 0.0 
80.0 2.0 0.0 86.0 2.0 0.0 
1.99999981323511 8.99999805583899 0.0 2.0 14.0 0.0 
91.0 2.0 0.0 98.0 20.0 0.0 
18.0 28.0 0.0 48.0 28.0 0.0 
78.0 28.0 0.0 83.0 28.0 0.0 
87.0 28.0 0.0 91.0 28.0 0.0 
98.0 7.0 0.0 14.0 28.0 0.0 
20.0 28.0 0.0 25.0 28.0 0.0 
30.0 28.0 0.0 35.0 28.0 0.0 
40.0 28.0 0.0 44.0 28.0 0.0 
50.0 28.0 0.0 55.0 28.0 0.0 
60.0 28.0 0.0 65.0 28.0 0.0 
70.0 28.0 0.0 74.0 28.0 0.0 
80.0 28.0 0.0 98.0 13.0 0.0 
1.99999999996321 11.9999999994391 0.0 2.0 18.0 0.0 
98.0 17.0 0.0 98.0 18.0 0.0 
8.0 28.0 0.0 98.0 3.0 0.0 
98.0 4.0 0.0 98.0 25.0 0.0 
3.0 28.0 0.0 4.0 28.0 0.0 
1.9971839117747 3.993137435461 0.0 1.98608618048036 1.98526975763388 0.0 
14.0 2.0 0.0 98.0 26.0 0.0 
98.0 27.0 0.0 1.99983949066551 5.99923056007149 0.0 
2.0 22.0 0.0 2.0 25.0 0.0 
7.99999502590895 1.99999772908988 0.0 10.9999999997687 1.99999999988056 0.0 
15.0 2.0 0.0 18.0 2.0 0.0 
[...]
CELL_DATA 3000

SCALARS element_states float
LOOKUP_TABLE default
1 1 1 1 1 1 1 0 0 0 0 0 0 0 0 0 0 1 1 1 1 1 1 1 1 1 1 1 1 1 
1 1 1 0 1 1 1 0 1 0 1 0 1 0 0 1 1 1 0 0 0 0 0 1 1 1 1 1 1 1 
1 1 1 1 1 1 0 0 0 0 0 0 0 0 0 0 0 1 1 1 1 1 1 1 1 1 1 1 1 1 
1 1 1 1 1 1 1 1 1 1 1 1 1 1 1 1 1 1 1 1 1 1 1 1 1 1 1 1 1 1 
1 1 1 1 1 1 1 1 1 1 1 1 1 1 1 1 1 1 1 1 1 1 1 1 1 1 1 1 1 1 
1 1 1 1 1 1 1 1 1 1 1 1 1 1 1 1 1 1 1 1 1 1 1 1 1 1 1 1 1 1 
1 1 1 1 1 1 1 1 1 1 1 0 0 0 0 0 0 0 0 0 0 0 0 0 0 0 0 0 0 0 
0 0 0 1 1 1 1 1 1 1 1 1 1 1 1 1 1 1 1 1 1 1 1 1 1 1 1 1 1 1 
1 1 1 1 1 1 1 1 1 1 1 1 1 1 1 1 1 1 1 1 1 1 1 1 1 1 1 1 1 1 
1 1 1 1 1 1 1 1 1 1 1 1 1 1 1 1 1 0 0 0 0 0 0 0 0 0 0 0 0 0 
0 0 0 0 0 0 0 0 0 0 0 1 1 1 1 1 1 1 1 1 1 1 1 1 1 0 0 0 1 1 
1 1 1 0 1 1 1 1 1 1 0 1 1 1 1 1 0 1 1 1 1 1 1 1 1 1 1 1 1 1 
1 1 1 1 0 1 0 0 0 0 0 0 0 1 1 1 1 1 1 1 1 1 1 1 1 1 1 1 1 1 
1 1 1 1 1 1 1 1 1 1 1 0 0 0 0 0 0 1 1 1 1 1 0 1 1 1 1 1 1 0 
1 1 0 0 1 1 0 0 1 0 0 0 1 0 0 0 0 0 0 0 0 0 0 1 1 1 1 1 1 1 
1 1 1 1 1 1 1 1 1 1 1 1 1 1 1 1 1 1 1 1 1 1 1 1 1 1 1 1 1 1 
1 1 1 1 1 1 1 1 1 1 1 1 1 1 1 1 1 1 1 1 1 1 1 1 1 1 1 1 1 1 
1 1 1 1 1 1 1 1 1 1 1 1 1 1 1 1 1 1 1 1 0 0 0 0 0 1 1 1 1 1 
1 1 1 1 1 1 1 1 1 1 1 0 0 0 0 0 0 0 1 1 0 0 0 0 0 1 1 0 0 0 
1 1 1 1 0 1 1 0 0 1 1 0 1 1 1 0 0 0 0 0 1 1 1 1 1 1 1 1 1 1 
1 1 1 0 0 0 0 0 1 1 0 0 1 1 1 1 0 1 1 1 1 1 1 1 1 1 1 1 1 1 
1 1 1 0 0 0 0 1 1 1 1 1 1 1 1 1 1 1 1 1 1 1 1 1 1 1 1 1 1 1 
1 1 1 1 1 1 0 0 1 1 1 1 1 1 1 1 1 1 1 1 0 0 0 0 1 1 1 1 0 0 
0 0 1 1 1 1 1 1 1 0 1 1 0 1 1 0 0 1 1 1 1 1 1 1 1 1 1 1 1 1 
1 1 1 1 0 0 0 0 0 0 0 1 1 1 1 1 1 1 1 1 1 1 1 1 1 1 1 1 1 1 
1 1 1 1 1 1 1 1 1 1 1 1 1 1 1 1 1 1 1 1 1 1 1 1 1 1 1 1 1 1 
1 1 1 1 1 1 1 1 1 1 1 1 1 1 1 1 1 1 1 1 1 1 1 1 1 1 1 1 1 1 
1 1 0 1 1 1 1 0 0 0 0 1 1 1 1 1 1 1 1 1 1 1 1 1 1 1 1 0 0 0 
1 1 1 0 1 1 1 1 1 1 1 1 1 1 1 1 1 1 0 0 0 0 0 0 0 1 1 1 1 1 
1 1 1 1 1 0 0 0 1 1 1 1 1 1 0 1 1 1 1 1 1 0 0 0 1 1 1 1 1 1 
0 0 0 0 1 1 1 0 0 0 0 1 1 1 0 1 1 1 1 1 1 0 0 1 1 1 1 1 1 0 
1 1 0 1 1 1 1 1 1 1 1 1 1 1 1 1 1 1 1 1 1 1 1 0 0 0 0 0 0 0 
0 0 1 1 0 0 0 1 1 1 1 1 1 1 1 1 1 1 1 1 1 0 1 1 1 1 1 1 0 1 
1 1 1 1 1 0 0 0 1 1 1 1 1 1 1 0 1 0 1 0 0 0 0 1 1 0 0 0 0 0 
1 1 1 1 0 0 0 0 1 1 1 1 0 0 1 1 0 1 1 1 1 1 1 1 0 1 1 1 1 1 
1 1 1 1 1 1 1 1 1 1 0 0 0 1 1 0 1 1 0 1 1 1 1 1 1 1 1 1 1 1 
1 1 1 1 1 1 0 1 1 1 1 1 1 1 1 1 1 1 1 1 1 1 1 1 1 1 1 0 0 0 
0 0 0 0 0 1 1 1 0 0 0 0 1 1 1 1 1 1 1 1 1 1 1 1 1 1 0 0 1 1 
1 1 1 1 1 1 1 1 1 0 0 1 1 1 1 0 0 0 1 1 1 1 1 0 1 1 1 1 1 0 
0 1 0 1 1 1 1 1 1 1 1 1 1 1 1 1 0 0 1 1 1 1 1 1 1 0 0 0 1 0 
1 1 1 1 1 1 1 1 1 1 1 1 1 1 1 1 1 1 0 0 0 0 0 0 0 0 1 1 1 1 
1 1 1 1 1 1 0 1 1 1 1 0 0 0 0 1 1 1 1 1 1 1 1 1 1 1 1 1 1 1 
1 1 1 1 1 1 1 1 1 0 1 1 1 1 1 1 0 1 1 1 1 1 1 1 1 1 0 0 0 0 
1 1 1 1 1 1 1 1 1 0 1 1 1 1 1 1 1 1 1 1 1 1 0 0 1 1 1 1 1 1 
1 0 0 0 0 0 1 0 1 0 1 1 1 1 1 1 1 1 1 1 1 1 1 1 1 1 1 1 1 1 
1 1 1 1 1 1 1 1 0 0 0 0 0 1 0 0 0 1 0 0 1 1 1 1 1 1 1 1 1 1 
0 0 1 1 1 1 1 1 1 1 1 1 1 1 1 1 1 1 1 1 1 1 0 0 0 0 1 1 1 0 
1 1 0 1 1 1 1 1 1 1 0 1 1 1 1 1 0 0 0 1 1 1 1 0 0 1 1 1 1 1 
1 1 1 1 1 1 1 0 1 1 0 0 1 1 1 1 1 0 1 1 0 0 0 1 1 1 1 1 0 0 
0 0 1 0 1 1 1 1 1 1 1 0 1 0 0 1 1 1 1 1 1 1 1 0 0 0 1 1 1 1 
1 1 1 1 1 1 0 0 1 1 1 1 1 1 1 0 0 1 1 1 1 0 0 1 1 1 1 1 1 1 
1 0 1 1 1 1 1 1 1 1 0 1 1 1 1 1 1 1 1 1 0 1 1 1 1 1 1 1 0 1 
1 1 1 1 1 1 1 1 1 1 1 1 1 1 1 0 1 1 1 1 1 0 0 1 1 1 1 1 1 1 
1 1 0 0 0 0 0 1 1 1 1 1 1 1 1 1 1 0 1 1 1 1 1 1 1 1 1 0 0 0 
0 0 1 1 0 0 0 0 1 1 1 1 1 1 1 1 1 0 0 1 1 1 1 1 1 1 0 0 1 1 
0 0 0 0 1 1 0 0 0 0 0 1 1 1 1 1 1 1 1 1 1 0 0 1 1 0 1 1 1 1 
0 1 1 0 1 0 0 1 1 0 1 1 1 1 1 1 1 1 1 0 0 1 1 1 1 1 0 1 1 1 
1 1 1 0 1 1 1 1 1 1 0 1 1 1 1 1 1 1 0 0 1 1 1 1 1 1 1 1 0 0 
0 0 1 1 1 1 1 1 1 1 0 1 1 1 1 1 1 1 1 1 1 1 1 0 0 0 0 1 1 1 
1 1 1 1 1 1 1 1 1 1 1 1 0 1 1 1 1 1 1 1 1 1 1 1 1 1 0 0 0 1 
1 1 1 1 1 1 1 1 1 1 1 1 1 1 0 0 1 1 1 1 1 0 0 1 1 1 1 0 1 1 
1 1 1 1 1 1 1 0 0 0 1 1 1 1 1 1 1 1 0 0 1 1 0 0 0 0 0 0 1 1 
0 1 1 1 1 1 1 1 1 1 1 0 0 1 1 0 0 0 0 1 1 0 0 1 1 1 1 1 1 1 
0 1 0 0 1 1 1 1 1 1 1 1 1 1 1 1 1 0 0 0 1 1 1 1 0 0 0 1 0 1 
1 1 0 0 0 0 1 1 1 1 1 1 0 0 1 1 0 0 1 1 1 1 1 1 0 0 1 1 1 1 
1 1 0 0 0 0 1 0 0 1 1 1 1 0 0 1 1 1 0 1 1 1 1 1 1 1 1 1 1 0 
0 1 0 0 1 0 1 1 1 1 1 1 1 1 1 1 0 0 1 1 1 1 1 0 0 0 0 0 1 1 
1 1 1 0 1 1 1 1 1 0 1 0 1 1 1 1 1 1 0 1 1 1 1 0 0 0 1 1 1 0 
0 0 1 1 1 0 0 1 1 0 1 1 1 0 0 0 1 1 1 1 0 1 1 1 1 0 1 1 1 0 
0 1 1 0 0 0 0 1 1 0 0 1 1 1 0 1 1 0 0 0 0 1 1 1 1 1 0 0 1 1 
1 1 1 1 1 1 0 1 1 1 1 1 1 0 0 0 1 0 1 1 0 0 0 0 0 0 1 1 1 1 
1 1 0 0 0 1 1 0 1 0 1 1 0 0 0 1 0 0 1 1 1 1 1 1 0 0 1 0 1 0 
1 1 1 1 1 0 0 0 0 0 0 1 0 0 0 1 1 1 0 1 1 1 0 1 0 0 1 1 1 1 
0 1 0 0 1 1 1 0 0 1 1 1 1 1 0 0 0 0 0 1 1 1 1 1 1 0 0 1 1 0 
1 0 0 1 1 1 0 1 1 1 1 1 0 1 0 1 1 1 0 0 0 0 1 1 0 0 1 1 1 1 
1 1 1 0 1 1 0 1 1 0 0 0 1 0 0 0 1 1 0 0 0 1 1 1 1 0 0 0 1 0 
0 1 1 0 1 1 0 0 0 1 1 0 0 0 0 1 1 0 0 1 1 0 0 1 1 0 0 0 0 0 
0 1 1 1 0 0 0 1 0 0 1 0 1 1 1 0 0 0 0 1 1 1 1 0 0 0 0 1 0 0 
0 0 0 1 1 1 1 0 0 1 1 1 0 0 0 1 0 1 0 0 1 0 1 1 1 1 0 1 0 0 
0 1 0 1 1 0 0 0 0 0 1 1 0 1 0 0 0 0 1 1 0 1 0 0 0 0 0 0 0 0 
1 1 1 1 0 1 1 0 0 1 0 1 0 0 0 0 1 1 1 0 0 1 1 0 0 1 1 1 1 0 
0 1 1 1 0 0 1 0 1 1 0 1 0 0 1 1 0 0 0 0 0 1 1 1 1 0 1 0 1 0 
0 1 1 1 1 1 1 0 0 1 0 0 1 1 0 0 0 0 0 1 0 0 0 0 1 1 0 1 0 0 
0 1 1 0 0 1 1 0 0 1 1 0 0 1 1 0 0 0 0 1 0 1 1 1 0 0 0 0 0 0 
1 1 0 0 0 0 1 0 0 1 1 0 0 0 1 1 1 1 0 0 0 0 0 1 1 0 0 0 0 1 
1 1 1 1 0 0 0 0 1 1 1 0 0 0 0 0 0 1 0 0 0 1 1 0 1 1 0 0 0 0 
0 0 1 0 0 0 1 0 0 0 0 0 0 1 1 1 0 0 0 0 0 0 1 0 0 0 1 0 0 1 
1 1 0 1 1 1 0 1 1 1 1 1 0 0 1 1 0 0 1 0 0 1 1 1 1 0 0 1 0 1 
1 1 1 0 1 1 1 0 0 0 0 0 1 0 1 0 1 1 1 1 1 1 0 1 0 1 0 0 0 0 
0 0 0 0 0 0 0 0 1 1 0 0 0 0 0 0 0 1 0 0 1 0 0 1 1 1 0 1 0 1 
1 1 1 0 0 0 1 1 0 0 0 0 0 0 1 1 1 1 0 0 0 0 0 0 0 0 1 1 0 1 
0 1 1 0 0 0 0 0 1 0 1 1 1 1 1 0 0 0 0 0 0 0 0 1 0 0 1 1 0 1 
1 0 1 0 0 0 0 1 0 1 1 1 0 0 0 0 1 0 1 1 0 1 0 0 0 1 0 0 0 0 
1 1 1 1 0 1 0 0 1 0 0 0 0 0 1 1 1 1 0 0 1 0 1 1 0 0 1 0 0 1 
0 0 0 0 1 1 0 0 0 1 1 0 0 0 1 1 0 1 1 0 0 1 1 1 1 0 1 0 1 0 
0 1 0 1 1 0 0 0 0 0 0 0 0 0 0 1 0 0 0 0 1 0 0 0 1 1 1 1 1 1 
1 0 1 0 0 0 1 0 0 1 1 0 0 0 0 0 0 1 0 0 0 1 0 1 0 1 1 0 0 1 
0 0 1 0 0 0 1 1 1 1 1 0 0 0 0 0 1 1 1 1 1 0 1 1 0 0 1 1 0 0 
0 0 1 0 1 1 1 1 0 0 0 0 0 0 0 0 0 0 0 1 1 0 0 0 0 0 1 1 0 0 
0 0 0 1 1 1 1 0 0 0 1 0 0 0 1 0 0 0 0 1 0 0 1 1 0 0 0 1 1 1 


SCALARS sensitivity_number float
LOOKUP_TABLE default
0.008722179953684094 0.007358476946001726 0.006086807984344238 0.007361291714971968 0.006074649836544981 0.0033291847540073013 
0.0025591567068541125 5.764721819887743e-09 5.854752676328772e-09 5.759408456222987e-09 5.6392158596857426e-09 5.769355219595955e-09 
0.0003146085525812566 9.968001410087056e-11 6.138940334043685e-11 1.5969013888549233e-10 1.0816075593063123e-10 0.0032379981725870577 
0.002541955546189537 0.0026015713451212363 0.002444312123197795 0.0018598710781621815 0.0018283217757670792 0.0011887167174309766 
0.001134761534577612 0.0012054279790361226 0.0008883726309964565 0.0011055347186885482 0.0008548282750655337 0.001194953010465821 
0.0009833188105612433 0.001152065864663138 0.0010967992093722572 6.3317116711395294e-09 0.0007186730791170706 0.0012919051128474357 
0.0005410036782866808 6.19578366672558e-09 0.0005527321621576402 6.550707517097347e-09 0.0005470574548599393 0.00018322697188540395 
0.0007117212636986176 6.730406187966342e-09 6.123438234854366e-09 0.0008058829011076199 0.0005477550666044162 0.0006788961783431407 
4.046018021745514e-09 0.0002422754500173663 0.0009594478893476738 0.00034568918849815723 0.0010704427587580499 0.000886512523728856 
0.0015268715047408925 0.0011891268613026577 0.009242188373201921 0.008711715048470388 0.006104635504070465 0.007355190012029184 
0.004981077649751441 0.003989180468409736 0.0031255704943255534 0.0023793910327631258 0.0017376068104143583 0.0009252497052493199 
2.056656674371826e-09 0.0004390932441545256 2.218180199867738e-09 2.3126774572916942e-09 2.54173353164971e-09 2.4313433929045968e-09 
2.6390883545941914e-09 2.628458869582717e-09 2.729756237540129e-09 2.7805004469560165e-09 0.00023045734796105837 0.000724800740406162 
0.0013242991803742623 0.0021454594422795777 0.0031935423802684783 0.0069554330140592915 0.004669690179817508 0.012029927096116489 
0.029541498286676997 0.018984028438908992 0.009413355987382353 0.009503602707579795 0.009451768891416934 0.009560023852904454 
0.00960946588500766 0.009619409356349331 0.00963519723711101 0.009546616099424381 0.00940805731547962 0.008947899924484548 
0.00920474675510674 0.008656545992375482 0.008353166344490662 0.008059023048953628 0.00779052699267498 0.0075575185808167 
0.007206187143332819 0.007363337653959892 0.00698110442489749 0.007080994471663461 0.006899280431531656 0.006827745897574533 
0.006677013646864518 0.006757436290923415 0.006429236384578417 0.006572622723279529 0.006233893413733494 0.005979961487584908 
0.005320553659963059 0.005670760963497697 0.0045921845677325615 0.004952246940975238 0.004264278872151772 0.003985054943169967 
0.0035890374301600298 0.0037611468128966033 0.0033483381865768154 0.003456949341522816 0.003246282685835901 0.0031376430351839606 
0.0028788441471385142 0.003015426632845892 0.0025782803777890787 0.002731379020872821 0.002424746052253744 0.002275328893633066 
0.0020065267086157115 0.0021343507198411374 0.001811675363434067 0.0018972030055331552 0.0017541638754374682 0.001726774322117894 
0.0017613364050620495 0.001729597701182956 0.0019031659006920765 0.0018200918930704624 0.0020058032151389123 0.0021188788951720656 
0.0022987649933439453 0.0022255967798846944 0.0022081104635139066 0.002303792661949951 0.0020050989351384873 0.001737663460081485 
0.0013541928880800433 0.0014939317282749022 0.0012704679905850339 0.0012873820454296046 0.0012652317235446616 0.0012591980125463034 
0.0012464395794644072 0.0012528926042870959 0.0012339063208620471 0.001240155495525376 0.0012276942798162347 0.0012215137538651726 
0.0012092567989613068 0.0012153679408667961 0.0011971382064531314 0.0012031800926900233 0.0011911308654270478 0.0011851580550704534 
0.0011733168501057455 0.0011792200955950468 0.001161598214163521 0.0011674482917121264 0.0011557765286466753 0.0011500198508526665 
0.0011450355939453451 0.0011403950011559993 0.001131661714702714 0.0011174118054629012 0.0011352790931290714 0.0015588542814700904 
0.0012515635503126399 0.002643424524027434 0.01987931395861741 0.012504266809739085 0.01981620231085424 0.005395295304256326 
0.009361316913508635 0.003204298256995609 0.001887286430585104 0.0006404512456669935 0.001089185055156387 0.00036004970079236856 
0.00010759758314325334 2.1184590342481893e-09 1.583977552207058e-09 1.7081720840613086e-09 1.3749023851649273e-09 1.1766204880367165e-09 
9.866464653179734e-10 6.615031297121442e-10 8.181402910883609e-10 5.169536709702337e-10 3.893786601372102e-10 1.9395654175436784e-10 
2.815533102622422e-10 1.260037791761408e-10 4.230157189568123e-11 7.626023909091919e-11 2.0954076221882252e-11 8.85071412397457e-12 
2.938925007607937e-12 6.785848551300708e-13 1.6755035353592815e-13 0.030775885521103646 0.012183561225466197 0.015727765171931047 
0.010891486756562594 0.00997679414726681 0.008710390315198137 0.009292247498866198 0.00819875346832678 0.007739522292832803 
0.007329486538608386 0.006970626130529805 0.006666956293195476 0.006232663684671905 0.006421233379028888 0.006095440170609045 
0.005998607345839935 0.0059275150567248865 0.005802345386141512 0.005866555842375889 0.005726036703087614 0.005634158891578973 
0.005527879447619886 0.00529250013698876 0.005411760975921013 0.005178031974782354 0.0050763750805779915 0.004994246010023014 
0.004902323369213052 0.004935807384129863 0.004892824500879932 0.004904955117952665 0.004934962745562736 0.005019015577959051 
0.004976497695759881 0.005047261383433779 0.0050428044011900305 0.004987730464894839 0.004685178142981769 0.004869433088867032 
0.0044446459485760655 0.004169612197482219 0.0038897669833198563 0.003435945916984754 0.0036365080047182463 0.003304620921584925 
0.0032474282569879653 0.0032572737318889095 0.0033811052461592975 0.0033134814817957015 0.0034163441749905255 0.0033789832629052777 
0.0032487935074332276 0.002762928586683972 0.0030331729278931705 0.002479326796252478 0.0022172407485950606 0.00199673584516415 
0.0016690086470880923 0.0018181175382134447 0.0015329719821049854 0.0014002946419478777 0.0012709503721693373 0.0010486721635320161 
0.0011515666919487868 0.0009642900237356606 0.0008952284922487412 0.0008363924977136711 0.0007346018699273449 0.0007836608722898011 
0.0006870877109032766 0.0006399416266159394 0.0006062865939104569 0.0005649959952628696 0.0005870928679589522 0.0005835977996235216 
0.00035326897625955855 0.00010686695030164426 2.3436250271810567e-09 3.754139796019861e-09 2.369416728574268e-09 2.2017355561484047e-09 
1.8367347239855624e-09 1.1946552401320079e-09 1.496572612259397e-09 9.563996991228726e-10 7.638350670656298e-10 4.693246729923805e-10 
6.035891169001966e-10 3.561165222459996e-10 2.608069598487694e-10 1.2031227530895333e-10 1.823480727782869e-10 4.1536002132967234e-11 
7.390695682156057e-11 2.0788579992988372e-11 8.84270745294012e-12 6.803212335034073e-13 2.9466149558878144e-12 0.0057079342373887385 
0.005840574714880957 0.00497154969397452 0.004601071690251836 0.00465447128411414 0.004367005734788179 0.003058097435469573 
0.0031975060691056905 0.0025360637516710018 0.0016312021336937097 0.0010692999979472018 0.0007686655400215785 0.0006810721088260207 
0.0007474148665172147 1.6683077134608887e-09 5.58806098234322e-10 7.063115704906539e-10 0.008224766460335165 0.00884516658338131 
0.00880150829864335 0.002833974259518166 0.004140405448361231 6.28459779413869e-11 0.01035455426136418 0.011643043802083015 
0.006097997030017526 0.004968852086515418 0.008281499253786101 0.008012151788765845 1.7316679909197577e-11 0.005615674465121033 
0.005549440225447226 0.002983095314005335 0.0029681677545435364 0.0007243148179198113 0.0006762378254008669 0.007359551260692055 
0.0031127751026922934 0.003974743750512871 0.0009513455918015736 0.001480496543670489 0.008886013263700735 0.008908596075089165 
0.008518502759356499 0.007460793190532861 0.0077319364546632515 0.0011381152043389601 0.0011303345922203572 0.0011381674692130265 
0.012850917943800593 0.0060084330020620386 0.0018613564381718803 0.0011994179375849423 0.00043948090925338755 0.0005376221716742063 
0.00016389080977703365 2.77664413335135e-05 1.0372994568395755e-09 8.663896723283637e-10 4.304701785747962e-10 1.593294628044273e-10 
1.0349827660153482e-10 0.019763802252638855 0.014064079524832471 0.009474980946154326 0.008792191649053616 0.006554286461168152 
0.006898404686764961 0.006261634838630019 0.006023628228783342 0.00518468384106619 0.005079762888963165 0.004694525799114937 
0.004637413404538877 0.004598079944792773 0.004624260978393267 0.0046274895860324745 0.004527329497910487 0.003639019736405754 
0.0033962047661625196 0.002951342757723378 0.0027667936205852343 0.0018927547139321252 0.0017497688157469694 0.0012800855498295532 
0.0011662887400283573 0.0008696490666839083 0.0008164007473929856 0.0007036022195400414 0.0006975035982072525 1.9634223625353934e-09 
9.981742992135099e-10 7.994772970225458e-10 3.9100496523146497e-10 2.960040457989722e-10 1.7232205979302563e-11 0.0072136837825837 
0.00528097836594853 0.004772108448784073 0.0030594112352556086 0.0020753245405667163 2.2957603683257196e-09 0.0045833976877578285 
0.0046727361489696 0.0014010379823520798 0.0009267148523924632 0.00390080453426431 0.0007086631241467691 1.2251540949566545e-09 
0.005428719458471239 0.005697931235180681 5.031955056245882e-10 0.0003981777152101386 0.0011145811821195823 0.0022738307810974976 
2.3194245814132876e-10 1.509940571369805e-10 0.002371782374367054 1.2427019702993175e-09 3.4559757780351795e-11 6.764982093055395e-11 
0.001736129637271279 2.0993139856809923e-09 2.3099081157220918e-09 2.234048127467475e-09 2.5196938599915874e-09 2.4176625960409077e-09 
2.591259970802056e-09 2.685983911895043e-09 6.947876172967727e-05 2.595555428083278e-09 0.00041406037258184515 0.0007732450836489343 
0.0033940226671198216 0.007352451310060704 0.004964187904892877 0.011939906339078352 0.008765746265470043 0.008895409135962477 
0.008830706508597304 0.00870502987193604 0.006998969111202013 0.0066703789602067685 0.006818761147237918 0.006446409563404065 
0.0065483762201231244 0.006358419939049123 0.006278794128007998 0.0061184077580529435 0.006201441815599326 0.005889558246852086 
0.006018848694812879 0.005717536786767711 0.005494312131563941 0.004905968459158077 0.00522009061897293 0.00424319581227216 
0.004572102683673118 0.003942157584898386 0.0036855519504971697 0.003325561975341335 0.003480731312300696 0.0031168111763787494 
0.003209554688617931 0.0030306039799811264 0.002937947822698039 0.002714822138505444 0.0028326202119478144 0.0024589207023026725 
0.002588629975257877 0.002329488377613213 0.002202904417811771 0.001968169686389522 0.002081403477813742 0.0017858100130099667 
0.0018677811159554666 0.0017267257833246696 0.0016926839934904923 0.0016952531598405465 0.0016828824668942224 0.0017773216500326823 
0.0017275090283477854 0.001841362601434234 0.001914438623413318 0.0020482276335519276 0.0019882985133439003 0.002009356074762721 
0.002067421730754024 0.0018424006639861385 0.0015797267181720583 0.0011372487447464637 0.0013180783759044875 0.0011432854965037938 
0.0011290417806518603 0.0011465653578012075 0.0011469077833919765 0.0011450821004396483 0.0011461019013976753 0.0011434269043090713 
0.00114421927887696 0.0011426854655671888 0.0011419888706987432 0.0011407362122739131 0.0011413389100644203 0.0011396725463690208 
0.0011401807695325665 0.0011392115472847327 0.0011387978748685365 0.001138112873473409 0.0011384317224743155 0.0011375967016614623 
0.0011378380858464569 0.0011374079103948663 0.0011374332870439227 0.0010938631016074256 0.0011943077839149988 0.0010121703487581467 
0.0026275436169557265 0.0008205624373222153 1.4787643550076413e-09 3.2204796107071117e-10 3.49922725318714e-11 2.318482447736667e-12 
7.232100156403917e-12 0.007290626424969769 0.007730547168880397 0.005493596686550335 0.0054348105977907405 0.0053648597714459475 
0.004866566188934602 0.0045837453998390666 0.004676095652357447 0.004152387809822431 0.0029998040362413394 0.003051911100987156 
0.0030850218177673723 0.0022948862246790418 0.0015188596935663502 0.0009909362216728827 0.000730669029653216 0.0003720557139736336 
0.00013629991163731687 3.157067749376652e-05 1.5488704785999825e-09 6.367698086535366e-10 2.16274869797097e-10 7.226452717261595e-12 
0.00600905020846094 0.006359161575966436 1.0895261361998616e-09 4.700457108986114e-10 2.5250734938684502e-09 1.3743415358668887e-09 
1.460050414950648e-09 0.0007322347306905449 0.0007358696413210596 5.786975914432299e-10 6.705737910703866e-10 5.713591131777532e-10 
0.007418687426990041 0.011236152868024166 0.00209669245684526 0.0006089785624298217 0.0002524397116315369 0.007191508152290045 
0.00770485141471823 1.8524214597108113e-11 3.806825032196446e-11 0.0007286260623424575 0.000960510623635623 5.275260781536389e-10 
0.004770526044234653 0.0023945317977194453 0.0008830479283255804 1.7932718815805015e-09 2.2088325205698676e-09 8.766126153606993e-10 
7.100939443726776e-10 3.7698472598968953e-10 0.0011144218496017284 0.0013956910589622055 0.005206060590677365 0.004316550982590907 
0.003989081677999096 0.003912861437523367 0.003721315719152519 0.0029220294125444283 0.0020693373640854355 0.001556332915287287 
0.0011133594094746217 0.0008359455138060894 0.0009235476406430635 6.689159906052704e-05 2.597888697009964e-09 8.945016771092274e-05 
6.544232401418339e-10 8.075464029319281e-10 0.002219436673229844 0.002339624988107869 6.851318318123262e-11 1.1093002684538418e-10 
0.009106878361190649 0.010124220963577507 0.004949529504766797 0.006473725478095779 3.823548801629913e-11 0.0030908686790189406 
0.003950558701475592 0.0016764048822128395 0.0010759279887237443 0.007429001402560579 0.007435869555877241 0.007130400653596736 
0.00624859343810959 0.0007437885250390926 0.0007395142033133694 0.0007532201086747652 0.0007476478777802619 0.0018134534732590743 