# vtk DataFile Version 3.0
Results from optimization
ASCII
DATASET UNSTRUCTURED_GRID

POINTS 3131 float
0.0 0.0 0.0 0.0 30.0 0.0 
100.0 0.0 0.0 100.0 30.0 0.0 
0.0 1.0 0.0 0.0 2.0 0.0 
0.0 3.0 0.0 0.0 4.0 0.0 
0.0 5.0 0.0 0.0 6.0 0.0 
0.0 7.0 0.0 0.0 8.0 0.0 
0.0 9.0 0.0 0.0 10.0 0.0 
0.0 11.0 0.0 0.0 12.0 0.0 
0.0 13.0 0.0 0.0 14.0 0.0 
0.0 15.0 0.0 0.0 16.0 0.0 
0.0 17.0 0.0 0.0 18.0 0.0 
0.0 19.0 0.0 0.0 20.0 0.0 
0.0 21.0 0.0 0.0 22.0 0.0 
0.0 23.0 0.0 0.0 24.0 0.0 
0.0 25.0 0.0 0.0 26.0 0.0 
0.0 27.0 0.0 0.0 28.0 0.0 
0.0 29.0 0.0 1.0 0.0 0.0 
2.0 0.0 0.0 3.0 0.0 0.0 
4.0 0.0 0.0 5.0 0.0 0.0 
6.0 0.0 0.0 7.0 0.0 0.0 
8.0 0.0 0.0 9.0 0.0 0.0 
10.0 0.0 0.0 11.0 0.0 0.0 
12.0 0.0 0.0 13.0 0.0 0.0 
14.0 0.0 0.0 15.0 0.0 0.0 
16.0 0.0 0.0 17.0 0.0 0.0 
18.0 0.0 0.0 19.0 0.0 0.0 
20.0 0.0 0.0 21.0 0.0 0.0 
22.0 0.0 0.0 23.0 0.0 0.0 
24.0 0.0 0.0 25.0 0.0 0.0 
26.0 0.0 0.0 27.0 0.0 0.0 
28.0 0.0 0.0 29.0 0.0 0.0 
30.0 0.0 0.0 31.0 0.0 0.0 
32.0 0.0 0.0 33.0 0.0 0.0 
34.0 0.0 0.0 35.0 0.0 0.0 
36.0 0.0 0.0 37.0 0.0 0.0 
38.0 0.0 0.0 39.0 0.0 0.0 
40.0 0.0 0.0 41.0 0.0 0.0 
42.0 0.0 0.0 43.0 0.0 0.0 
44.0 0.0 0.0 45.0 0.0 0.0 
46.0 0.0 0.0 47.0 0.0 0.0 
48.0 0.0 0.0 49.0 0.0 0.0 
50.0 0.0 0.0 51.0 0.0 0.0 
52.0 0.0 0.0 53.0 0.0 0.0 
54.0 0.0 0.0 55.0 0.0 0.0 
56.0 0.0 0.0 57.0 0.0 0.0 
58.0 0.0 0.0 59.0 0.0 0.0 
60.0 0.0 0.0 61.0 0.0 0.0 
62.0 0.0 0.0 63.0 0.0 0.0 
64.0 0.0 0.0 65.0 0.0 0.0 
66.0 0.0 0.0 67.0 0.0 0.0 
68.0 0.0 0.0 69.0 0.0 0.0 
70.0 0.0 0.0 71.0 0.0 0.0 
72.0 0.0 0.0 73.0 0.0 0.0 
74.0 0.0 0.0 75.0 0.0 0.0 
76.0 0.0 0.0 77.0 0.0 0.0 
78.0 0.0 0.0 79.0 0.0 0.0 
80.0 0.0 0.0 81.0 0.0 0.0 
82.0 0.0 0.0 83.0 0.0 0.0 
84.0 0.0 0.0 85.0 0.0 0.0 
86.0 0.0 0.0 87.0 0.0 0.0 
88.0 0.0 0.0 89.0 0.0 0.0 
90.0 0.0 0.0 91.0 0.0 0.0 
92.0 0.0 0.0 93.0 0.0 0.0 
94.0 0.0 0.0 95.0 0.0 0.0 
96.0 0.0 0.0 97.0 0.0 0.0 
98.0 0.0 0.0 99.0 0.0 0.0 
100.0 1.0 0.0 100.0 2.0 0.0 
100.0 3.0 0.0 100.0 4.0 0.0 
100.0 5.0 0.0 100.0 6.0 0.0 
100.0 7.0 0.0 100.0 8.0 0.0 
100.0 9.0 0.0 100.0 10.0 0.0 
100.0 11.0 0.0 100.0 12.0 0.0 
100.0 13.0 0.0 100.0 14.0 0.0 
100.0 15.0 0.0 100.0 16.0 0.0 
100.0 17.0 0.0 100.0 18.0 0.0 
100.0 19.0 0.0 100.0 20.0 0.0 
100.0 21.0 0.0 100.0 22.0 0.0 
100.0 23.0 0.0 100.0 24.0 0.0 
100.0 25.0 0.0 100.0 26.0 0.0 
100.0 27.0 0.0 100.0 28.0 0.0 
100.0 29.0 0.0 1.0 30.0 0.0 
2.0 30.0 0.0 3.0 30.0 0.0 
4.0 30.0 0.0 5.0 30.0 0.0 
6.0 30.0 0.0 7.0 30.0 0.0 
8.0 30.0 0.0 9.0 30.0 0.0 
10.0 30.0 0.0 11.0 30.0 0.0 
12.0 30.0 0.0 13.0 30.0 0.0 
14.0 30.0 0.0 15.0 30.0 0.0 
16.0 30.0 0.0 17.0 30.0 0.0 
18.0 30.0 0.0 19.0 30.0 0.0 
20.0 30.0 0.0 21.0 30.0 0.0 
22.0 30.0 0.0 23.0 30.0 0.0 
24.0 30.0 0.0 25.0 30.0 0.0 
26.0 30.0 0.0 27.0 30.0 0.0 
28.0 30.0 0.0 29.0 30.0 0.0 
30.0 30.0 0.0 31.0 30.0 0.0 
32.0 30.0 0.0 33.0 30.0 0.0 
34.0 30.0 0.0 35.0 30.0 0.0 
36.0 30.0 0.0 37.0 30.0 0.0 
38.0 30.0 0.0 39.0 30.0 0.0 
40.0 30.0 0.0 41.0 30.0 0.0 
42.0 30.0 0.0 43.0 30.0 0.0 
44.0 30.0 0.0 45.0 30.0 0.0 
46.0 30.0 0.0 47.0 30.0 0.0 
48.0 30.0 0.0 49.0 30.0 0.0 
50.0 30.0 0.0 51.0 30.0 0.0 
52.0 30.0 0.0 53.0 30.0 0.0 
54.0 30.0 0.0 55.0 30.0 0.0 
56.0 30.0 0.0 57.0 30.0 0.0 
58.0 30.0 0.0 59.0 30.0 0.0 
60.0 30.0 0.0 61.0 30.0 0.0 
62.0 30.0 0.0 63.0 30.0 0.0 
64.0 30.0 0.0 65.0 30.0 0.0 
66.0 30.0 0.0 67.0 30.0 0.0 
68.0 30.0 0.0 69.0 30.0 0.0 
70.0 30.0 0.0 71.0 30.0 0.0 
72.0 30.0 0.0 73.0 30.0 0.0 
74.0 30.0 0.0 75.0 30.0 0.0 
76.0 30.0 0.0 77.0 30.0 0.0 
78.0 30.0 0.0 79.0 30.0 0.0 
80.0 30.0 0.0 81.0 30.0 0.0 
82.0 30.0 0.0 83.0 30.0 0.0 
84.0 30.0 0.0 85.0 30.0 0.0 
86.0 30.0 0.0 87.0 30.0 0.0 
88.0 30.0 0.0 89.0 30.0 0.0 
90.0 30.0 0.0 91.0 30.0 0.0 
92.0 30.0 0.0 93.0 30.0 0.0 
94.0 30.0 0.0 95.0 30.0 0.0 
96.0 30.0 0.0 97.0 30.0 0.0 
98.0 30.0 0.0 99.0 30.0 0.0 
16.0 1.0 0.0 22.0 1.0 0.0 
28.0 1.0 0.0 34.0 1.0 0.0 
40.0 1.0 0.0 46.0 1.0 0.0 
52.0 1.0 0.0 58.0 1.0 0.0 
64.0 1.0 0.0 70.0 1.0 0.0 
76.0 1.0 0.0 82.0 1.0 0.0 
15.0 29.0 0.0 20.0 29.0 0.0 
25.0 29.0 0.0 30.0 29.0 0.0 
35.0 29.0 0.0 40.0 29.0 0.0 
45.0 29.0 0.0 50.0 29.0 0.0 
55.0 29.0 0.0 60.0 29.0 0.0 
65.0 29.0 0.0 70.0 29.0 0.0 
75.0 29.0 0.0 80.0 29.0 0.0 
99.0 13.0 0.0 85.0 29.0 0.0 
1.0 12.0 0.0 1.0 18.0 0.0 
99.0 18.0 0.0 88.0 1.0 0.0 
8.99999999994914 0.999999999973743 0.0 99.0 8.0 0.0 
8.0 29.0 0.0 89.0 29.0 0.0 
99.0 22.0 0.0 0.999995859328856 6.99995963616369 0.0 
1.0 23.0 0.0 93.0 1.0 0.0 
93.0 29.0 0.0 4.99897846844128 0.999401131561401 0.0 
99.0 4.0 0.0 99.0 25.0 0.0 
4.0 29.0 0.0 0.998018130894958 3.99456365118287 0.0 
96.0 29.0 0.0 1.0 27.0 0.0 
2.98755098591844 0.99220568858159 0.0 13.0 1.0 0.0 
97.0 1.0 0.0 99.0 27.0 0.0 
0.999999999429266 9.99999999116626 0.0 1.0 16.0 0.0 
20.0 1.0 0.0 26.0 1.0 0.0 
32.0 1.0 0.0 38.0 1.0 0.0 
44.0 1.0 0.0 50.0 1.0 0.0 
56.0 1.0 0.0 62.0 1.0 0.0 
68.0 1.0 0.0 74.0 1.0 0.0 
80.0 1.0 0.0 86.0 1.0 0.0 
99.0 15.0 0.0 10.0 29.0 0.0 
17.0 29.0 0.0 22.0 29.0 0.0 
27.0 29.0 0.0 32.0 29.0 0.0 
37.0 29.0 0.0 42.0 29.0 0.0 
47.0 29.0 0.0 52.0 29.0 0.0 
57.0 29.0 0.0 62.0 29.0 0.0 
67.0 29.0 0.0 72.0 29.0 0.0 
77.0 29.0 0.0 82.0 29.0 0.0 
0.982043965477184 1.98304218642421 0.0 1.0 29.0 0.0 
99.0 1.0 0.0 99.0 29.0 0.0 
0.983223912217958 0.987621281485569 0.0 0.999949380687591 5.99961944502072 0.0 
0.999999970537249 8.99999955168247 0.0 1.0 14.0 0.0 
1.0 20.0 0.0 1.0 22.0 0.0 
1.0 25.0 0.0 6.99998134409618 0.99999175922936 0.0 
10.9999999999491 0.999999999973743 0.0 15.0 1.0 0.0 
18.0 1.0 0.0 24.0 1.0 0.0 
30.0 1.0 0.0 36.0 1.0 0.0 
42.0 1.0 0.0 48.0 1.0 0.0 
54.0 1.0 0.0 60.0 1.0 0.0 
66.0 1.0 0.0 72.0 1.0 0.0 
78.0 1.0 0.0 84.0 1.0 0.0 
90.0 1.0 0.0 92.0 1.0 0.0 
95.0 1.0 0.0 99.0 2.0 0.0 
99.0 5.0 0.0 99.0 6.0 0.0 
99.0 9.0 0.0 99.0 10.0 0.0 
99.0 11.0 0.0 99.0 16.0 0.0 
99.0 19.0 0.0 99.0 20.0 0.0 
99.0 23.0 0.0 2.0 29.0 0.0 
5.0 29.0 0.0 6.0 29.0 0.0 
11.0 29.0 0.0 12.0 29.0 0.0 
13.0 29.0 0.0 18.0 29.0 0.0 
23.0 29.0 0.0 28.0 29.0 0.0 
33.0 29.0 0.0 38.0 29.0 0.0 
43.0 29.0 0.0 48.0 29.0 0.0 
53.0 29.0 0.0 58.0 29.0 0.0 
63.0 29.0 0.0 68.0 29.0 0.0 
73.0 29.0 0.0 78.0 29.0 0.0 
83.0 29.0 0.0 86.0 29.0 0.0 
87.0 29.0 0.0 90.0 29.0 0.0 
91.0 29.0 0.0 94.0 29.0 0.0 
97.0 29.0 0.0 16.0 2.0 0.0 
22.0 28.0 0.0 27.0 28.0 0.0 
52.0 28.0 0.0 57.0 28.0 0.0 
82.0 28.0 0.0 32.0 28.0 0.0 
37.0 28.0 0.0 62.0 28.0 0.0 
67.0 28.0 0.0 42.0 28.0 0.0 
72.0 28.0 0.0 98.0 15.0 0.0 
12.0 28.0 0.0 98.0 19.0 0.0 
89.0 28.0 0.0 98.0 10.0 0.0 
1.99999999531953 9.999999928767 0.0 93.0 2.0 0.0 
2.0 23.0 0.0 98.0 22.0 0.0 
93.0 28.0 0.0 1.99998433821395 6.9998796865685 0.0 
98.0 5.0 0.0 5.0 28.0 0.0 
85.0 28.0 0.0 96.0 28.0 0.0 
1.98413137230705 0.988341966066793 0.0 0.993390117123437 2.98985247870427 0.0 
0.999537928146093 4.99813727245904 0.0 0.999998442801018 7.99998651096591 0.0 
0.999999999636129 10.9999999944437 0.0 1.0 13.0 0.0 
1.0 15.0 0.0 1.0 17.0 0.0 
1.0 19.0 0.0 1.0 21.0 0.0 
1.0 24.0 0.0 1.0 26.0 0.0 
1.0 28.0 0.0 3.99605406296194 0.997383435909015 0.0 
5.99977465143194 0.999865295129002 0.0 7.9999965299808 0.999998450318377 0.0 
9.99999999988557 0.999999999940923 0.0 11.9999999999936 0.999999999996718 0.0 
14.0 1.0 0.0 17.0 1.0 0.0 
19.0 1.0 0.0 21.0 1.0 0.0 
23.0 1.0 0.0 25.0 1.0 0.0 
27.0 1.0 0.0 29.0 1.0 0.0 
31.0 1.0 0.0 33.0 1.0 0.0 
35.0 1.0 0.0 37.0 1.0 0.0 
39.0 1.0 0.0 41.0 1.0 0.0 
43.0 1.0 0.0 45.0 1.0 0.0 
47.0 1.0 0.0 49.0 1.0 0.0 
51.0 1.0 0.0 53.0 1.0 0.0 
55.0 1.0 0.0 57.0 1.0 0.0 
59.0 1.0 0.0 61.0 1.0 0.0 
63.0 1.0 0.0 65.0 1.0 0.0 
67.0 1.0 0.0 69.0 1.0 0.0 
71.0 1.0 0.0 73.0 1.0 0.0 
75.0 1.0 0.0 77.0 1.0 0.0 
79.0 1.0 0.0 81.0 1.0 0.0 
83.0 1.0 0.0 85.0 1.0 0.0 
87.0 1.0 0.0 89.0 1.0 0.0 
91.0 1.0 0.0 94.0 1.0 0.0 
96.0 1.0 0.0 98.0 1.0 0.0 
99.0 3.0 0.0 99.0 7.0 0.0 
99.0 12.0 0.0 99.0 14.0 0.0 
99.0 17.0 0.0 99.0 21.0 0.0 
99.0 24.0 0.0 99.0 26.0 0.0 
99.0 28.0 0.0 3.0 29.0 0.0 
7.0 29.0 0.0 9.0 29.0 0.0 
14.0 29.0 0.0 16.0 29.0 0.0 
19.0 29.0 0.0 21.0 29.0 0.0 
24.0 29.0 0.0 26.0 29.0 0.0 
29.0 29.0 0.0 31.0 29.0 0.0 
34.0 29.0 0.0 36.0 29.0 0.0 
39.0 29.0 0.0 41.0 29.0 0.0 
44.0 29.0 0.0 46.0 29.0 0.0 
49.0 29.0 0.0 51.0 29.0 0.0 
54.0 29.0 0.0 56.0 29.0 0.0 
59.0 29.0 0.0 61.0 29.0 0.0 
64.0 29.0 0.0 66.0 29.0 0.0 
69.0 29.0 0.0 71.0 29.0 0.0 
74.0 29.0 0.0 76.0 29.0 0.0 
79.0 29.0 0.0 81.0 29.0 0.0 
84.0 29.0 0.0 88.0 29.0 0.0 
92.0 29.0 0.0 95.0 29.0 0.0 
98.0 29.0 0.0 98.0 8.0 0.0 
10.0 28.0 0.0 86.0 28.0 0.0 
90.0 28.0 0.0 22.0 2.0 0.0 
28.0 2.0 0.0 34.0 2.0 0.0 
40.0 2.0 0.0 46.0 2.0 0.0 
52.0 2.0 0.0 58.0 2.0 0.0 
64.0 2.0 0.0 70.0 2.0 0.0 
76.0 2.0 0.0 82.0 2.0 0.0 
2.0 16.0 0.0 85.0 27.0 0.0 
88.0 2.0 0.0 11.9999999999928 1.99999999999631 0.0 
89.0 27.0 0.0 8.99999961400676 1.99999982348209 0.0 
5.9997075717904 1.99979502371096 0.0 1.99934767917968 4.99734291783241 0.0 
16.0 28.0 0.0 46.0 28.0 0.0 
76.0 28.0 0.0 2.0 27.0 0.0 
3.99556896721827 1.99618513026716 0.0 97.0 2.0 0.0 
2.0 20.0 0.0 94.0 28.0 0.0 
24.0 28.0 0.0 29.0 28.0 0.0 
34.0 28.0 0.0 39.0 28.0 0.0 
54.0 28.0 0.0 59.0 28.0 0.0 
64.0 28.0 0.0 69.0 28.0 0.0 
98.0 12.0 0.0 7.0 28.0 0.0 
98.0 24.0 0.0 97.0 28.0 0.0 
20.0 2.0 0.0 26.0 2.0 0.0 
32.0 2.0 0.0 38.0 2.0 0.0 
44.0 2.0 0.0 50.0 2.0 0.0 
56.0 2.0 0.0 62.0 2.0 0.0 
68.0 2.0 0.0 74.0 2.0 0.0 
80.0 2.0 0.0 86.0 2.0 0.0 
1.99999981323511 8.99999805583899 0.0 2.0 14.0 0.0 
91.0 2.0 0.0 98.0 20.0 0.0 
18.0 28.0 0.0 48.0 28.0 0.0 
78.0 28.0 0.0 83.0 28.0 0.0 
87.0 28.0 0.0 91.0 28.0 0.0 
98.0 7.0 0.0 14.0 28.0 0.0 
20.0 28.0 0.0 25.0 28.0 0.0 
30.0 28.0 0.0 35.0 28.0 0.0 
40.0 28.0 0.0 44.0 28.0 0.0 
50.0 28.0 0.0 55.0 28.0 0.0 
60.0 28.0 0.0 65.0 28.0 0.0 
70.0 28.0 0.0 74.0 28.0 0.0 
80.0 28.0 0.0 98.0 13.0 0.0 
1.99999999996321 11.9999999994391 0.0 2.0 18.0 0.0 
98.0 17.0 0.0 98.0 18.0 0.0 
8.0 28.0 0.0 98.0 3.0 0.0 
98.0 4.0 0.0 98.0 25.0 0.0 
3.0 28.0 0.0 4.0 28.0 0.0 
1.9971839117747 3.993137435461 0.0 1.98608618048036 1.98526975763388 0.0 
14.0 2.0 0.0 98.0 26.0 0.0 
98.0 27.0 0.0 1.99983949066551 5.99923056007149 0.0 
2.0 22.0 0.0 2.0 25.0 0.0 
7.99999502590895 1.99999772908988 0.0 10.9999999997687 1.99999999988056 0.0 
15.0 2.0 0.0 18.0 2.0 0.0 
[...]
CELL_DATA 3000

SCALARS element_states float
LOOKUP_TABLE default
1 1 1 1 1 1 1 1 1 1 1 1 1 0 0 0 0 1 1 1 1 1 1 1 1 1 1 1 1 1 
1 1 1 1 1 1 1 1 1 1 1 1 1 1 1 1 1 1 0 1 1 0 1 1 1 1 1 1 1 1 
1 1 1 1 1 1 1 1 1 0 0 0 0 0 0 1 1 1 1 1 1 1 1 1 1 1 1 1 1 1 
1 1 1 1 1 1 1 1 1 1 1 1 1 1 1 1 1 1 1 1 1 1 1 1 1 1 1 1 1 1 
1 1 1 1 1 1 1 1 1 1 1 1 1 1 1 1 1 1 1 1 1 1 1 1 1 1 1 1 1 1 
1 1 1 1 1 1 1 1 1 1 1 1 1 1 1 1 1 1 1 1 1 1 1 1 1 1 1 1 1 1 
1 1 1 1 1 1 1 1 1 1 1 1 1 0 0 0 0 0 0 0 0 0 0 0 0 0 0 0 0 0 
0 0 0 1 1 1 1 1 1 1 1 1 1 1 1 1 1 1 1 1 1 1 1 1 1 1 1 1 1 1 
1 1 1 1 1 1 1 1 1 1 1 1 1 1 1 1 1 1 1 1 1 1 1 1 1 1 1 1 1 1 
1 1 1 1 1 1 1 1 1 1 1 1 1 1 1 1 1 1 1 0 0 0 0 0 0 0 0 0 0 0 
0 0 0 0 0 0 0 0 0 0 0 1 1 1 1 1 1 1 1 1 1 1 1 1 1 0 0 0 1 1 
1 1 1 0 1 1 1 1 1 1 0 1 1 1 1 1 1 1 1 1 1 1 1 1 1 1 1 1 1 1 
1 1 1 1 1 1 1 0 0 0 0 0 0 1 1 1 1 1 1 1 1 1 1 1 1 1 1 1 1 1 
1 1 1 1 1 1 1 1 1 1 1 0 0 0 0 0 0 1 1 1 1 1 0 1 1 1 1 1 1 0 
1 1 0 1 1 1 0 0 1 0 0 0 1 1 0 1 0 0 0 0 1 0 1 1 1 1 1 1 1 1 
1 1 1 1 1 1 1 1 1 1 1 1 1 1 1 1 1 1 1 1 1 1 1 1 1 1 1 1 1 1 
1 1 1 1 1 1 1 1 1 1 1 1 1 1 1 1 1 1 1 1 1 1 1 1 1 1 1 1 1 1 
1 1 1 1 1 1 1 1 1 1 1 1 1 1 1 1 1 1 1 1 0 0 0 0 0 1 1 1 1 1 
1 1 1 1 1 1 1 1 1 1 1 0 0 0 0 0 0 0 1 1 0 0 0 0 0 1 1 0 0 0 
1 1 1 1 1 1 1 0 0 1 1 0 1 1 1 0 0 0 0 0 1 1 1 1 1 1 1 1 1 1 
1 1 1 1 0 0 0 0 1 1 0 0 1 1 1 1 0 1 1 1 1 1 1 1 1 1 1 1 1 1 
1 1 1 0 0 0 0 1 1 1 1 1 1 1 1 1 1 1 1 1 1 1 1 1 1 1 1 1 1 1 
1 1 1 1 1 1 0 1 1 1 1 1 1 1 1 1 1 1 1 1 0 0 1 1 1 1 1 1 0 0 
0 0 1 1 1 1 1 1 1 0 1 1 0 1 1 0 0 1 1 1 1 1 1 1 1 1 1 1 1 1 
1 1 1 1 0 0 1 0 0 0 1 1 1 1 1 1 1 1 1 1 1 1 1 1 1 1 1 1 1 1 
1 1 1 1 1 1 1 1 1 1 1 1 1 1 1 1 1 1 1 1 1 1 1 1 1 1 1 1 1 1 
1 1 1 1 1 1 1 1 1 1 1 1 1 1 1 1 1 1 1 1 1 1 1 1 1 1 1 1 1 1 
1 1 0 1 1 1 1 0 0 0 0 1 1 1 1 1 1 1 1 1 1 1 1 1 1 1 1 1 1 0 
1 1 1 1 1 1 1 1 1 1 1 1 1 1 1 1 1 1 1 1 1 1 1 1 0 1 1 1 1 1 
1 1 1 1 1 0 0 1 1 1 1 1 1 1 0 1 1 1 1 1 1 1 1 1 1 1 1 1 1 1 
0 0 0 0 1 1 1 0 0 1 1 1 1 1 1 1 1 1 1 1 1 1 0 1 1 1 1 1 1 0 
1 1 0 1 1 1 1 1 1 1 1 1 1 1 1 1 1 1 1 1 1 1 1 1 1 1 1 1 1 1 
1 0 1 1 0 0 0 1 1 1 1 1 1 1 1 1 1 1 1 1 1 1 1 1 1 1 1 1 1 1 
1 1 1 1 1 0 1 0 1 1 1 1 1 1 1 1 1 1 1 0 1 0 0 1 1 0 0 0 0 1 
1 1 1 1 0 1 0 1 1 1 1 1 1 1 1 1 0 1 1 1 1 1 1 1 0 1 1 1 1 1 
1 1 1 1 1 1 1 1 1 1 1 1 1 1 1 1 1 1 0 1 1 1 1 1 1 1 1 1 1 1 
1 1 1 1 1 1 1 1 1 1 1 1 1 1 1 1 1 1 1 1 1 1 1 1 1 1 1 0 0 0 
0 1 1 0 0 1 1 1 0 0 0 0 1 1 1 1 1 1 1 1 1 1 1 1 1 1 1 0 1 1 
1 1 1 1 1 1 1 1 1 1 1 1 1 1 1 0 0 0 1 1 1 1 1 0 1 1 1 1 1 0 
0 1 1 1 1 1 1 1 1 1 1 1 1 1 1 1 0 0 1 1 1 1 1 1 1 0 0 0 1 0 
1 1 1 1 1 1 1 1 1 1 1 1 1 1 1 1 1 1 0 0 0 0 0 0 0 0 1 1 1 1 
1 1 1 1 1 1 0 1 1 0 1 0 0 0 1 1 1 1 1 1 1 1 1 1 1 1 1 1 1 1 
1 1 1 1 1 1 1 1 1 0 1 1 1 1 1 1 0 1 1 1 1 1 1 0 1 1 0 0 1 0 
1 1 1 1 1 1 1 1 1 1 1 1 1 1 1 1 1 1 1 1 1 1 1 1 1 1 1 1 1 1 
1 1 0 0 0 0 1 0 1 0 1 1 1 1 1 1 1 1 1 1 1 1 1 1 1 1 1 1 1 1 
1 1 1 1 1 1 1 1 1 1 1 1 0 1 0 0 0 1 0 0 1 1 1 1 1 1 1 1 1 1 
0 0 1 1 1 1 1 1 1 1 1 1 1 1 1 1 1 1 1 1 1 1 0 0 0 0 1 1 1 0 
1 1 0 1 1 1 1 1 1 1 0 1 1 1 1 1 1 0 0 1 1 1 1 0 0 1 1 1 1 1 
1 1 1 1 1 1 1 1 1 1 0 0 1 1 1 1 1 1 1 1 0 0 0 1 1 1 1 1 0 0 
0 0 1 0 1 1 1 1 1 1 1 1 1 0 0 1 1 1 1 1 1 1 1 1 1 1 1 1 1 1 
1 1 1 1 1 1 1 1 1 1 1 1 1 1 1 1 1 1 1 1 1 1 1 1 1 1 1 1 1 1 
1 1 1 1 1 1 1 1 1 1 0 1 1 1 1 1 1 1 1 1 0 1 1 1 1 1 1 1 1 1 
1 1 1 1 1 1 1 1 1 1 1 1 1 1 1 1 1 1 1 1 1 0 0 1 1 1 1 1 1 1 
1 1 1 1 1 0 0 0 0 1 1 1 1 1 1 1 1 0 1 1 1 1 1 1 1 1 1 1 0 1 
0 0 1 1 0 0 0 0 1 1 1 1 1 1 1 1 1 1 0 1 1 1 1 1 1 1 1 1 1 1 
0 0 0 0 1 1 1 1 1 0 0 1 1 1 1 1 1 1 1 1 1 1 0 1 1 0 1 1 1 1 
1 1 1 1 1 1 1 1 1 1 1 1 1 1 1 1 1 1 1 0 0 1 1 1 1 1 1 1 1 1 
1 1 1 0 1 1 1 1 1 1 0 1 1 1 1 1 1 1 1 1 1 1 1 1 1 1 1 1 1 1 
1 1 1 1 1 1 1 1 1 1 1 1 1 1 1 1 1 1 1 1 1 1 1 0 1 1 1 1 1 1 
1 1 1 1 1 1 1 1 1 1 1 1 1 1 1 1 1 1 1 1 1 1 0 1 1 1 1 1 1 1 
1 1 1 1 1 1 1 1 1 1 1 1 1 1 0 1 1 1 1 1 1 1 1 1 1 1 1 1 1 1 
1 1 1 1 1 1 1 0 0 0 1 1 1 1 1 1 1 1 1 1 1 1 0 0 0 0 1 0 1 1 
1 1 1 1 1 1 1 1 1 1 1 1 1 1 1 0 0 0 0 1 1 0 0 1 1 1 1 1 1 1 
1 1 1 0 1 1 1 1 1 1 1 1 1 1 1 1 1 1 1 1 1 1 1 1 0 0 0 1 1 1 
1 1 0 0 1 1 1 1 1 1 1 1 0 1 1 1 0 0 1 1 1 1 1 1 1 1 1 1 1 1 
1 1 1 1 1 0 1 1 1 1 1 1 1 1 1 1 1 1 1 1 1 1 1 1 1 1 1 1 1 1 
1 1 1 1 1 1 1 1 1 1 1 1 1 1 1 1 1 1 1 1 1 1 1 1 1 0 1 1 1 1 
1 1 1 0 1 1 1 1 1 1 1 0 1 1 1 1 1 1 1 1 1 1 1 0 1 0 1 1 1 0 
0 1 1 1 1 0 1 1 1 1 1 1 1 1 1 0 1 1 1 1 1 1 1 1 1 0 1 1 1 1 
0 1 1 0 0 0 0 1 1 1 1 1 1 1 0 1 1 1 1 1 1 1 1 1 1 1 0 0 1 1 
1 1 1 1 1 1 1 1 1 1 1 1 1 1 1 0 1 1 1 1 1 1 1 1 1 1 1 1 1 1 
1 1 1 1 1 1 1 1 1 1 1 1 1 0 0 1 1 1 1 1 1 0 1 1 1 1 1 0 1 1 
1 1 1 1 1 1 1 1 0 0 1 1 1 1 1 1 1 1 0 1 1 1 1 1 1 1 1 1 1 1 
1 1 1 1 1 1 1 1 1 1 1 1 1 1 1 0 0 0 1 1 1 1 1 0 0 1 1 1 1 1 
1 1 1 1 1 1 1 1 1 1 1 1 1 1 0 1 1 1 1 1 0 0 1 1 0 1 1 1 1 1 
1 1 1 1 1 1 1 1 1 1 1 1 1 0 0 1 1 1 1 0 0 1 1 1 1 0 0 1 1 1 
1 1 1 1 1 1 1 0 0 1 1 0 1 0 0 1 1 0 1 0 1 1 1 1 1 1 1 1 1 0 
0 1 1 1 1 1 1 1 1 1 1 1 1 1 1 1 1 1 1 1 1 1 1 1 1 0 0 1 1 1 
1 1 1 1 1 1 1 1 1 1 1 1 0 0 1 1 0 1 1 0 1 1 1 1 1 1 1 1 1 0 
0 0 1 1 1 1 1 1 1 1 1 1 1 1 1 1 0 0 1 1 1 1 1 1 1 1 1 1 1 1 
1 1 1 1 1 1 1 0 0 1 1 0 1 0 1 1 1 1 1 1 1 1 0 1 1 1 1 1 1 1 
1 1 1 1 1 1 1 0 1 1 1 0 0 0 1 1 1 1 1 0 1 1 1 1 1 1 1 1 1 1 
1 1 1 1 1 0 1 0 0 1 1 1 1 1 1 0 1 1 0 0 0 0 1 1 1 1 1 1 0 1 
1 1 1 1 0 1 1 0 0 1 1 1 0 1 1 1 1 0 0 1 1 1 1 0 1 1 1 1 1 1 
1 1 1 1 0 0 1 1 1 1 1 1 1 1 0 1 1 1 1 1 1 0 1 1 1 1 1 1 1 1 
1 1 1 1 0 1 1 1 1 1 1 0 0 0 1 0 1 1 1 0 0 1 1 0 1 1 1 1 1 1 
1 1 1 1 0 0 1 0 1 1 1 1 1 0 1 1 1 1 1 1 1 0 1 0 0 1 1 0 0 1 
1 0 1 1 1 1 0 0 1 1 1 1 1 1 1 1 1 1 1 0 0 0 1 1 1 0 0 1 0 1 
1 1 1 0 1 1 0 1 1 0 0 1 0 0 1 0 1 1 1 1 1 1 0 0 1 1 1 1 0 0 
0 0 1 1 1 0 1 0 1 1 1 1 1 0 0 0 1 1 0 0 1 1 1 1 1 0 0 1 1 0 
1 1 1 0 0 0 1 1 1 1 1 0 0 0 0 0 1 1 0 0 0 1 1 1 0 1 1 1 1 1 
0 1 1 1 1 1 1 0 1 0 1 1 1 1 1 0 0 1 0 0 0 0 0 1 1 0 1 1 1 1 
1 1 1 0 0 0 1 0 0 1 1 1 0 0 0 0 1 1 1 1 0 1 0 0 0 1 1 0 0 0 
1 1 1 1 1 0 0 0 1 1 1 0 0 1 1 0 1 1 0 0 1 1 1 1 0 0 0 0 0 1 
1 1 0 0 1 1 0 1 1 1 1 1 1 1 1 1 1 1 1 0 0 1 1 0 1 1 1 1 1 0 
0 1 0 1 1 0 1 1 0 0 0 1 1 0 0 1 0 1 0 0 1 1 1 1 1 1 1 1 1 1 
1 1 1 0 0 0 0 0 0 1 1 1 1 1 0 0 1 1 1 0 0 1 1 1 1 1 1 0 0 0 
1 1 1 0 0 0 1 0 1 0 0 0 0 0 1 1 1 1 1 1 1 1 1 1 1 1 1 1 1 1 
0 0 1 1 1 1 1 1 0 1 0 0 0 0 0 0 0 0 0 1 1 0 0 0 1 0 1 1 0 1 
1 0 1 0 0 1 1 1 0 0 1 1 0 0 1 0 0 0 1 1 1 0 1 1 0 0 0 1 1 1 


SCALARS sensitivity_number float
LOOKUP_TABLE default
0.007488758117911113 0.00641191714532827 0.0053942595092216624 0.006421398604475371 0.005406747602824256 0.003066294609298122 
0.002419801102607025 0.0003726170541596441 0.0003424672412425173 0.00040311879277163263 0.00036809187963294685 0.0002706191764581972 
0.00035578855966553777 8.379887175673293e-11 5.216248520915174e-11 1.2821358139801057e-10 8.784885911616212e-11 0.0030639582693468754 
0.0024820057157529055 0.002464023864949645 0.002363978646928843 0.001929971046611658 0.0018710997363675218 0.0013923857584618494 
0.0015018437967257508 0.0014520146060113485 0.0009924529076215088 0.0006054330813276817 0.0010050411185823357 0.0006194732627850345 
0.0010027471744602405 0.0009634771967319716 0.0009900407925840919 0.0004164621312465347 0.0007744049697765084 0.0006361497499636421 
0.0006098611930861292 0.0002565742080842139 0.0005012003302046343 0.00040772807666973626 0.0005253699598239031 0.0003319543525276549 
0.0004995304149831642 0.00038277519052761996 0.000394803853907043 0.0004500042579756916 0.0004342464576732583 0.00044750010641148556 
0.0003623344724720817 0.000371949446057053 0.0002614209229794828 0.00023968399460261856 0.00039524277470517617 0.00036666256845862617 
0.0004535556858067658 0.000418944195219082 0.00790044169495749 0.007478604744692048 0.005392279011525821 0.00639894515533683 
0.0044749421514126515 0.0036527414792322456 0.0029280677313222227 0.002299413134396833 0.001762480978240042 0.001309999742002779 
0.0006206222280438656 0.0009324544554439182 0.0003111368819919731 0.00013143655181973408 6.114937339445672e-09 5.6950202645504185e-09 
6.292994622842372e-09 6.318026622275291e-09 4.505459816204635e-05 0.0002611589911803957 0.0006299358300561394 0.0011531650813572968 
0.0017697331654944583 0.0025085847190311305 0.00344438782391571 0.006746268849216016 0.004729369643854125 0.011434612858588891 
0.028147637058531443 0.017527292394674692 0.008037246079017308 0.008106297328641036 0.00806738932101962 0.008147490255567874 
0.008184617193921861 0.008212092149318196 0.008209091005880794 0.008185053963854882 0.008120954411800859 0.007868627591991025 
0.008015608789383098 0.007683779962137086 0.007468604845047347 0.007233338271911932 0.006989387115753567 0.006747713795618259 
0.006305232406398622 0.006517483194097487 0.005946854021587458 0.006114646226962402 0.005801049295471311 0.005675196853061011 
0.0054724222051046835 0.005566630760223161 0.005314409226301046 0.005389478636061323 0.005243247694450356 0.005171170693996202 
0.005000336776559168 0.00509238243344753 0.004750933855909624 0.004888400771384055 0.004584559947060975 0.0043892621706593405 
0.003930903125105931 0.004168902818602324 0.0034422674229431702 0.0036851275288852774 0.0032122323006710182 0.0030029491424501376 
0.002665713256024759 0.0028198132569294838 0.0024460966683201584 0.002541425501232518 0.002377641602967657 0.002332955738812133 
0.002297495713004374 0.002307955550472879 0.0022939857978948428 0.0022952861423465357 0.002285687276774457 0.0022629405598749426 
0.00215546237522312 0.0022202279489585484 0.0019724908430051066 0.0020708553767656824 0.0018685038215936357 0.001766304334072068 
0.0015795221202896286 0.001670073162813209 0.001397649532546593 0.001490591802553739 0.0012963606241629061 0.001186113875144925 
0.0009608821522113191 0.0010712313567762188 0.0008004700122938803 0.0008671544778205305 0.0007618205127029568 0.0007439963193703037 
0.0007421608744281028 0.000739526323703154 0.0007611091695025707 0.0007504574176329984 0.0007720939694850145 0.0007830317997217712 
0.0008050457465548825 0.0007939904573819792 0.0008274511053950225 0.0008161996612894524 0.0008387955422856451 0.0008502279092398717 
0.0008734248183399879 0.0008617545511457936 0.0008983475321083023 0.0008854407741841432 0.0009124147231382845 0.0009242366090295609 
0.0009223582663985934 0.000889525536576212 0.0008485938777747075 0.0008769507693928346 0.0010077079672189272 0.0015077242189222414 
0.001178763263561734 0.002611986710854123 0.019857035380059944 0.012497787885284174 0.019807137846609917 0.005447738584583995 
0.009353624129726675 0.003354683603661544 0.0020951782677988127 0.0007974092010772351 0.0012965878044639307 0.0004902537224190684 
0.00030965525029436064 0.00018203271994559364 1.1233374535611461e-09 5.583757561289072e-05 8.752218313781817e-10 7.895417191492455e-10 
6.624242395842998e-10 4.6525980994707294e-10 5.617546416924571e-10 3.7397522730492307e-10 2.915973281796794e-10 1.540594519028043e-10 
2.1797229689472483e-10 1.0219875160319272e-10 3.599650989071519e-11 6.322323408173265e-11 1.8417035249826194e-11 8.107951746394827e-12 
2.842027355286844e-12 6.982012028066853e-13 1.630174514723381e-13 0.029159439892816958 0.010782358840037837 0.014136684990797064 
0.009608683582247158 0.008806846009945598 0.007773255561518591 0.008234621320698101 0.007389840811602581 0.007061312055338797 
0.006774798497051837 0.006520720482492064 0.006292312520949818 0.005896378660694039 0.006085031268262221 0.005725505053743824 
0.005572654829727098 0.005438530823608299 0.005228252235281782 0.005323714880007255 0.005151443435572243 0.005091825275410639 
0.005047274799912826 0.004992435038230931 0.005015155551250194 0.004975740528890561 0.004961368946333184 0.0049453125451168495 
0.004891415850358016 0.004923375186630558 0.004845678874879552 0.004783085029065289 0.004701354080220013 0.004474790804605373 
0.004598923488663538 0.0043285114290538655 0.004160520640049319 0.0039727373573522125 0.003555994205182061 0.0037691460117486265 
0.003341354033594314 0.003134126887636495 0.0029427874877837787 0.0026333772780633663 0.002774286090460703 0.0025224570175742685 
0.0024417692565790856 0.002389765909226846 0.0023581813886707015 0.0023633936996783674 0.0023681556758615814 0.0023858139728154077 
0.0024025556866387066 0.002401025438561193 0.0024098398695485156 0.002373116989075547 0.0023274473716092398 0.002268437688958195 
0.002125553855948982 0.0022006259772223507 0.002040336254901189 0.0019393657178980546 0.0018179895275594424 0.001519109407897647 
0.001676053622070078 0.0013566666101866153 0.0011989476616225867 0.0010536720226792106 0.0008110870363599424 0.0009245092530355401 
0.000710178078240866 0.0006172653165611074 0.0005285954555606551 0.00036710071133608837 0.00044332395364445173 0.00030222040644062434 
0.0002576374224933023 0.00018616823871578651 1.7522385173920612e-09 6.497655358575038e-05 9.675612741553166e-10 9.73105018588347e-10 
9.754092042858765e-10 7.240350883211821e-10 8.343340192900371e-10 6.414809450817179e-10 5.635359328899487e-10 3.813677209111249e-10 
4.746999828082687e-10 2.9455117234131986e-10 2.1858215250088868e-10 1.0372036772928544e-10 1.5496273809680726e-10 3.690907533594545e-11 
6.463092439907753e-11 1.8869959690444256e-11 8.276052193232338e-12 7.034538534228424e-13 2.8840964155953835e-12 0.005415314347228551 
0.00557979927018069 0.004674907940803728 0.004545870930177196 0.004155489823114497 0.003336040096320737 0.0023748446766552345 
0.002481598847028903 0.0022118097559973835 0.0019530249528161468 0.0014366556407902683 0.000796124583207626 0.0003972185002812225 
0.000442115598248131 9.491025021968475e-05 3.929456864202041e-10 4.820055564262865e-10 0.007413949357619272 0.007588982884904537 
0.007556761351851307 0.0028054850502554633 0.004063185748199937 5.102084670072971e-11 0.00927246423947542 0.010467314229943245 
0.005392391376552651 0.004471573638342077 0.007321719043096418 0.007152252824401326 1.499882089756837e-11 0.0052675304523343985 
0.005137098954284972 0.0022949746579495746 0.0022406263160723427 0.0003775912803117864 0.00033131978594348564 0.00640608089098819 
0.002920058095133448 0.0036468115941275746 0.0013027171793839488 0.0018935760109537567 0.007618616453384647 0.007637838146894733 
0.007456377179191188 0.0067385374150381915 0.006954738990268304 0.000850833478870976 0.0010662381157328638 0.000936559385592134 
0.012806747165727293 0.005943348105014211 0.001913621764677809 0.0012837496995605675 0.0004206391742227858 0.000583469400583034 
0.0002874883707715341 0.00024180621943216684 7.346570611842182e-10 5.894964618182905e-10 3.1339393270105776e-10 1.2346197677542235e-10 
8.189830031241199e-11 0.01851241844087626 0.01279159396889028 0.008478777722551366 0.007884015475966113 0.006178796427682842 
0.006424064770489489 0.005959511497155757 0.0057608384295885495 0.0047415233539092405 0.00470402093652589 0.004607891754038105 
0.004581034592399165 0.004361152163501719 0.004267191313969516 0.0037101189466073243 0.003528239078447476 0.0027726858154533216 
0.00261497959317706 0.002220397577089051 0.0022234138411090466 0.002079333828037639 0.0020173795324717764 0.0016994431642084638 
0.0015764147648891472 0.0010142548836185102 0.0008974429667875008 0.0005600575830132138 0.0004973531344641132 9.798368102202162e-10 
6.460352076915298e-10 5.618946632864689e-10 3.093928003689697e-10 2.387699054187964e-10 1.519815715636873e-11 0.006514176950914045 
0.004790095422701521 0.00463010203896797 0.0022096325261300185 0.0021363308572889734 2.2600358365433923e-05 0.0044380996307311965 
0.003876721303056861 0.001801097602363232 0.0011463350119151595 0.0029501218314590496 0.000630215084104278 8.223857285357944e-10 
0.005270598478555989 0.005468586050641529 3.9121094602384534e-10 0.0009286996973338382 0.0010632859202151933 0.002666002939598031 
1.7677062976470797e-10 1.2574469058283973e-10 0.0022901316563403006 7.664370562789543e-10 2.981864313649146e-11 5.589336697191036e-11 
0.001753259759698441 0.0006204854312271855 0.00012023417371132667 0.0003170365440221905 6.0888417772155234e-09 5.7180213826659676e-09 
6.277362647745117e-09 6.066751034277655e-09 0.0003381256011569009 8.458873992568092e-05 0.0007287876282171954 0.001264243243620575 
0.003656340233135578 0.007114243343339571 0.00502073672847453 0.011263523928338829 0.007528396939227404 0.007638403396231819 
0.00761233539756713 0.007553030256242467 0.006291794210338526 0.005884073506589288 0.006079802781108669 0.005551485290577013 
0.005707730301975093 0.005414301765288269 0.005294133070064991 0.005095008329182685 0.005188531321353516 0.004934317856418156 
0.005011120218401741 0.004861643881770351 0.004789397061642252 0.00462664537445164 0.004712916172149557 0.004401424575038788 
0.0045246265825913 0.004253339436352037 0.004079558331987259 0.0036693331268563304 0.0038828243404740405 0.003227774936039044 
0.003447761573863265 0.0030184136190694287 0.002826929367688154 0.0025149224815778624 0.002658223922454579 0.0023060754350805747 
0.0023977628776312085 0.0022381386985424016 0.0021913806479776374 0.0021470277938349415 0.0021624247359005675 0.0021350138124577324 
0.002139969243663441 0.0021251498468866036 0.002103332340381118 0.002003662562897873 0.002063788127402607 0.0018311541288243114 
0.0019242564554657672 0.0017325364854260295 0.0016363822059970647 0.0014659061956908785 0.0015474571290823842 0.0013064924147417763 
0.0013876461469790843 0.0012168558639613282 0.001116232525846673 0.0008969092079135837 0.001007046656917118 0.0007252620180944506 
0.0007984018421772622 0.0006865299584668117 0.0006745939007841001 0.0006805844670926464 0.0006733531176504605 0.0006956779457853567 
0.000688495798863534 0.0007020255473977323 0.0007080042868364205 0.0007200596335194907 0.0007139833578132084 0.0007324915426098618 
0.0007262335217092821 0.0007388195184868088 0.000745185512719397 0.0007578322722529883 0.0007515296265023218 0.0007735376949240358 
0.0007645217186053767 0.0007900396049588744 0.000817469588455615 0.0009243669341563106 0.001126383001308519 0.0008896517351479391 
0.002530076068736574 0.0008584644779703681 1.721743070675058e-05 2.4119104063236e-10 2.9272682614272824e-11 2.2103662545123594e-12 
6.534811939897183e-12 0.006703426417816207 0.007028153311140741 0.0050245420116777515 0.004929826523629562 0.00485217601617951 
0.0046513067066211115 0.004499092312071091 0.004025426555179206 0.003140594973212714 0.0022092054335574158 0.0021970466106566414 
0.0021992865036895375 0.002182284565094384 0.00188333848429128 0.001289812079645206 0.0007080799511262674 0.0003531467476120849 
0.0002012510630375821 8.286204883351345e-05 8.661297005583973e-10 4.790833605904336e-10 1.777215999603376e-10 6.5801418209455065e-12 
0.005691942178473217 0.005950748081510193 6.069737249670321e-10 3.5168891529560744e-10 6.164668630451712e-09 9.92247477521333e-10 
0.00014584489641587128 0.0005250639275974738 0.0005338304282458693 4.191858924465564e-10 5.258251737520339e-10 4.3704600066738826e-10 
0.006468511422779736 0.010499751024303053 0.0018751899562778303 0.0009510239503332184 0.00035275446046282433 0.006633814390868942 
0.007099206835419112 1.610605053639863e-11 3.2158260650441796e-11 0.0005261681746335655 0.0012910800990251037 3.6419293040182034e-10 
0.004516955555528263 0.00193568051422793 0.0005849759310831953 3.152690990388633e-05 0.00012130187478741167 5.491220247972996e-10 
4.997888223967744e-10 2.912374707651076e-10 0.0009573733027850604 0.0012394938027922044 0.005091287253392456 0.004026087913318057 
0.00384363309168195 0.003508192868813956 0.002891257406321703 0.002290308109268674 0.0018273954057566688 0.001604495854283086 
0.0012737512446328095 0.0007657350731971815 0.0005913435139899384 0.00031108688947542834 1.8365469702668166e-05 0.00020310390428333392 
4.37877498515137e-10 5.382223387978602e-10 0.001898746526347052 0.002017232782845335 5.51726016367424e-11 8.621359104044624e-11 
0.008431971064889235 0.009407856144075782 0.004470128577456985 0.005913383063650686 3.1944429927921924e-11 0.0029108187654480248 
0.0036416346814681405 0.002137854452120116 0.001476702385104923 0.0064745939980622585 0.006478136890255189 0.00632365715952657 
0.005735049935837319 0.0006299972850133998 0.000567627575382214 0.0007537645131419151 0.0007749520572849888 0.001584420905045558 